Built with Packmol
12000
    1EMI    C01    1   0.711   1.587   4.558
    1EMI    C04    2   0.833   1.669   4.730
    1EMI    C03    3   0.707   1.710   4.748
    1EMI    H07    4   0.681   1.537   4.469
    1EMI    H09    5   0.917   1.689   4.793
    1EMI    H08    6   0.670   1.771   4.828
    1EMI    C05    7   0.486   1.676   4.613
    1EMI    H0B    8   0.446   1.591   4.561
    1EMI    H0C    9   0.437   1.687   4.707
    1EMI    H0D   10   0.471   1.764   4.553
    1EMI    N00   11   0.630   1.656   4.635
    1EMI    C06   12   0.949   1.523   4.547
    1EMI    H0F   13   0.997   1.590   4.479
    1EMI    C0N   14   1.048   1.483   4.658
    1EMI    H0O   15   1.133   1.435   4.615
    1EMI    H0P   16   1.080   1.571   4.711
    1EMI    H0Q   17   1.000   1.416   4.726
    1EMI    N02   18   0.832   1.589   4.606
    1EMI    H0E   19   0.917   1.436   4.494
    2EMI    C01   20   3.603   4.245   4.459
    2EMI    C04   21   3.485   4.437   4.442
    2EMI    C03   22   3.488   4.382   4.320
    2EMI    H07   23   3.661   4.164   4.497
    2EMI    H09   24   3.438   4.528   4.470
    2EMI    H08   25   3.444   4.420   4.231
    2EMI    C05   26   3.596   4.163   4.226
    2EMI    H0B   27   3.604   4.064   4.266
    2EMI    H0C   28   3.517   4.166   4.153
    2EMI    H0D   29   3.688   4.191   4.179
    2EMI    N00   30   3.566   4.258   4.334
    2EMI    C06   31   3.584   4.366   4.674
    2EMI    H0F   32   3.674   4.421   4.688
    2EMI    C0N   33   3.466   4.444   4.734
    2EMI    H0O   34   3.483   4.458   4.839
    2EMI    H0P   35   3.457   4.539   4.686
    2EMI    H0Q   36   3.375   4.388   4.720
    2EMI    N02   37   3.560   4.346   4.530
    2EMI    H0E   38   3.592   4.271   4.722
    3EMI    C01   39   0.271   1.155   0.542
    3EMI    C04   40   0.490   1.113   0.573
    3EMI    C03   41   0.434   0.999   0.530
    3EMI    H07   42   0.176   1.204   0.537
    3EMI    H09   43   0.593   1.128   0.597
    3EMI    H08   44   0.482   0.905   0.514
    3EMI    C05   45   0.190   0.934   0.465
    3EMI    H0B   46   0.113   0.987   0.412
    3EMI    H0C   47   0.235   0.862   0.400
    3EMI    H0D   48   0.146   0.885   0.549
    3EMI    N00   49   0.292   1.029   0.511
    3EMI    C06   50   0.397   1.352   0.621
    3EMI    H0F   51   0.382   1.359   0.727
    3EMI    C0N   52   0.538   1.401   0.586
    3EMI    H0O   53   0.549   1.503   0.617
    3EMI    H0P   54   0.611   1.341   0.637
    3EMI    H0Q   55   0.553   1.394   0.480
    3EMI    N02   56   0.382   1.212   0.580
    3EMI    H0E   57   0.324   1.412   0.571
    4EMI    C01   58   4.327   2.506   0.483
    4EMI    C04   59   4.203   2.324   0.434
    4EMI    C03   60   4.120   2.430   0.435
    4EMI    H07   61   4.409   2.571   0.508
    4EMI    H09   62   4.177   2.222   0.415
    4EMI    H08   63   4.015   2.429   0.416
    4EMI    C05   64   4.156   2.684   0.479
    4EMI    H0B   65   4.234   2.752   0.451
    4EMI    H0C   66   4.072   2.699   0.414
    4EMI    H0D   67   4.127   2.704   0.580
    4EMI    N00   68   4.204   2.546   0.467
    4EMI    C06   69   4.459   2.298   0.477
    4EMI    H0F   70   4.472   2.264   0.577
    4EMI    C0N   71   4.450   2.176   0.383
    4EMI    H0O   72   4.540   2.118   0.390
    4EMI    H0P   73   4.366   2.116   0.410
    4EMI    H0Q   74   4.438   2.210   0.282
    4EMI    N02   75   4.336   2.377   0.466
    4EMI    H0E   76   4.543   2.358   0.449
    5EMI    C01   77   4.791   1.637   4.334
    5EMI    C04   78   4.744   1.423   4.387
    5EMI    C03   79   4.877   1.435   4.385
    5EMI    H07   80   4.781   1.740   4.307
    5EMI    H09   81   4.687   1.335   4.409
    5EMI    H08   82   4.949   1.358   4.405
    5EMI    C05   83   5.038   1.635   4.336
    5EMI    H0B   84   5.034   1.738   4.362
    5EMI    H0C   85   5.107   1.585   4.401
    5EMI    H0D   86   5.071   1.624   4.235
    5EMI    N00   87   4.905   1.575   4.350
    5EMI    C06   88   4.548   1.591   4.343
    5EMI    H0F   89   4.515   1.574   4.243
    5EMI    C0N   90   4.467   1.503   4.440
    5EMI    H0O   91   4.363   1.528   4.433
    5EMI    H0P   92   4.480   1.400   4.414
    5EMI    H0Q   93   4.501   1.519   4.540
    5EMI    N02   94   4.691   1.556   4.353
    5EMI    H0E   95   4.535   1.694   4.369
    6EMI    C01   96   0.473   0.835   1.157
    6EMI    C04   97   0.649   0.698   1.122
    6EMI    C03   98   0.538   0.626   1.104
    6EMI    H07   99   0.413   0.921   1.178
    6EMI    H09  100   0.750   0.664   1.113
    6EMI    H08  101   0.532   0.522   1.078
    6EMI    C05  102   0.283   0.681   1.118
    6EMI    H0B  103   0.227   0.767   1.088
    6EMI    H0C  104   0.270   0.603   1.047
    6EMI    H0D  105   0.249   0.648   1.214
    6EMI    N00  106   0.426   0.717   1.127
    6EMI    C06  107   0.691   0.948   1.184
    6EMI    H0F  108   0.712   0.951   1.289
    6EMI    C0N  109   0.822   0.934   1.105
    6EMI    H0O  110   0.886   1.017   1.126
    6EMI    H0P  111   0.872   0.843   1.135
    6EMI    H0Q  112   0.801   0.930   1.001
    6EMI    N02  113   0.604   0.833   1.156
    6EMI    H0E  114   0.642   1.038   1.155
    7EMI    C01  115   0.639   2.171   3.040
    7EMI    C04  116   0.484   2.014   2.991
    7EMI    C03  117   0.514   2.078   2.877
    7EMI    H07  118   0.708   2.233   3.093
    7EMI    H09  119   0.414   1.934   3.004
    7EMI    H08  120   0.472   2.058   2.780
    7EMI    C05  121   0.676   2.273   2.818
    7EMI    H0B  122   0.775   2.296   2.852
    7EMI    H0C  123   0.681   2.228   2.721
    7EMI    H0D  124   0.618   2.362   2.814
    7EMI    N00  125   0.614   2.178   2.912
    7EMI    C06  126   0.568   2.040   3.237
    7EMI    H0F  127   0.495   2.097   3.290
    7EMI    C0N  128   0.535   1.890   3.251
    7EMI    H0O  129   0.536   1.863   3.355
    7EMI    H0P  130   0.438   1.870   3.211
    7EMI    H0Q  131   0.608   1.832   3.199
    7EMI    N02  132   0.567   2.077   3.095
    7EMI    H0E  133   0.665   2.059   3.278
    8EMI    C01  134   4.699   4.587   0.678
    8EMI    C04  135   4.839   4.684   0.826
    8EMI    C03  136   4.741   4.771   0.802
    8EMI    H07  137   4.654   4.517   0.610
    8EMI    H09  138   4.923   4.697   0.892
    8EMI    H08  139   4.729   4.869   0.844
    8EMI    C05  140   4.529   4.764   0.649
    8EMI    H0B  141   4.459   4.686   0.627
    8EMI    H0C  142   4.486   4.831   0.720
    8EMI    H0D  143   4.553   4.817   0.559
    8EMI    N00  144   4.652   4.705   0.705
    8EMI    C06  145   4.891   4.443   0.739
    8EMI    H0F  146   4.964   4.452   0.661
    8EMI    C0N  147   4.962   4.422   0.874
    8EMI    H0O  148   5.021   4.333   0.870
    8EMI    H0P  149   5.025   4.506   0.895
    8EMI    H0Q  150   4.888   4.413   0.952
    8EMI    N02  151   4.810   4.566   0.745
    8EMI    H0E  152   4.828   4.359   0.718
    9EMI    C01  153   0.734   2.093   4.340
    9EMI    C04  154   0.509   2.107   4.360
    9EMI    C03  155   0.563   2.156   4.472
    9EMI    H07  156   0.832   2.073   4.302
    9EMI    H09  157   0.405   2.098   4.337
    9EMI    H08  158   0.510   2.196   4.557
    9EMI    C05  159   0.808   2.188   4.555
    9EMI    H0B  160   0.897   2.219   4.504
    9EMI    H0C  161   0.770   2.270   4.612
    9EMI    H0D  162   0.831   2.107   4.620
    9EMI    N00  163   0.708   2.146   4.456
    9EMI    C06  164   0.612   2.006   4.142
    9EMI    H0F  165   0.608   1.899   4.152
    9EMI    C0N  166   0.485   2.057   4.073
    9EMI    H0O  167   0.478   2.013   3.975
    9EMI    H0P  168   0.399   2.029   4.131
    9EMI    H0Q  169   0.489   2.163   4.064
    9EMI    N02  170   0.622   2.066   4.276
    9EMI    H0E  171   0.698   2.033   4.085
   10EMI    C01  172   4.737   1.104   2.735
   10EMI    C04  173   4.820   0.920   2.836
   10EMI    C03  174   4.732   0.975   2.920
   10EMI    H07  175   4.718   1.182   2.664
   10EMI    H09  176   4.878   0.832   2.853
   10EMI    H08  177   4.704   0.940   3.017
   10EMI    C05  178   4.579   1.186   2.907
   10EMI    H0B  179   4.522   1.229   2.826
   10EMI    H0C  180   4.513   1.133   2.972
   10EMI    H0D  181   4.628   1.265   2.961
   10EMI    N00  182   4.679   1.094   2.852
   10EMI    C06  183   4.904   0.985   2.598
   10EMI    H0F  184   4.998   1.035   2.610
   10EMI    C0N  185   4.929   0.834   2.579
   10EMI    H0O  186   4.990   0.819   2.492
   10EMI    H0P  187   4.980   0.795   2.665
   10EMI    H0Q  188   4.836   0.783   2.567
   10EMI    N02  189   4.821   1.006   2.717
   10EMI    H0E  190   4.853   1.023   2.512
   11EMI    C01  191   4.733   1.489   1.394
   11EMI    C04  192   4.663   1.661   1.522
   11EMI    C03  193   4.755   1.595   1.592
   11EMI    H07  194   4.744   1.420   1.314
   11EMI    H09  195   4.609   1.748   1.553
   11EMI    H08  196   4.791   1.618   1.691
   11EMI    C05  197   4.900   1.383   1.543
   11EMI    H0B  198   4.949   1.349   1.454
   11EMI    H0C  199   4.972   1.427   1.609
   11EMI    H0D  200   4.853   1.300   1.591
   11EMI    N00  201   4.799   1.484   1.507
   11EMI    C06  202   4.560   1.627   1.285
   11EMI    H0F  203   4.466   1.578   1.298
   11EMI    C0N  204   4.538   1.780   1.286
   11EMI    H0O  205   4.472   1.806   1.206
   11EMI    H0P  206   4.494   1.809   1.379
   11EMI    H0Q  207   4.632   1.829   1.273
   11EMI    N02  208   4.650   1.590   1.395
   11EMI    H0E  209   4.603   1.598   1.192
   12EMI    C01  210   1.533   2.240   1.631
   12EMI    C04  211   1.741   2.219   1.546
   12EMI    C03  212   1.682   2.320   1.482
   12EMI    H07  213   1.444   2.225   1.690
   12EMI    H09  214   1.840   2.182   1.531
   12EMI    H08  215   1.724   2.381   1.405
   12EMI    C05  216   1.445   2.430   1.499
   12EMI    H0B  217   1.382   2.452   1.583
   12EMI    H0C  218   1.493   2.519   1.466
   12EMI    H0D  219   1.385   2.389   1.420
   12EMI    N00  220   1.547   2.332   1.539
   12EMI    C06  221   1.662   2.057   1.736
   12EMI    H0F  222   1.632   1.966   1.689
   12EMI    C0N  223   1.811   2.049   1.774
   12EMI    H0O  224   1.826   1.968   1.842
   12EMI    H0P  225   1.870   2.033   1.686
   12EMI    H0Q  226   1.841   2.140   1.821
   12EMI    N02  227   1.642   2.169   1.642
   12EMI    H0E  228   1.604   2.073   1.824
   13EMI    C01  229   0.489   1.218   3.786
   13EMI    C04  230   0.455   0.995   3.789
   13EMI    C03  231   0.350   1.050   3.727
   13EMI    H07  232   0.532   1.315   3.800
   13EMI    H09  233   0.472   0.891   3.808
   13EMI    H08  234   0.265   0.999   3.687
   13EMI    C05  235   0.286   1.297   3.669
   13EMI    H0B  236   0.344   1.380   3.635
   13EMI    H0C  237   0.232   1.254   3.587
   13EMI    H0D  238   0.217   1.330   3.744
   13EMI    N00  239   0.375   1.195   3.727
   13EMI    C06  240   0.672   1.094   3.896
   13EMI    H0F  241   0.656   1.099   4.002
   13EMI    C0N  242   0.737   0.959   3.861
   13EMI    H0O  243   0.830   0.950   3.912
   13EMI    H0P  244   0.672   0.879   3.891
   13EMI    H0Q  245   0.753   0.953   3.755
   13EMI    N02  246   0.543   1.106   3.826
   13EMI    H0E  247   0.737   1.173   3.866
   14EMI    C01  248   3.313   2.463   2.631
   14EMI    C04  249   3.133   2.401   2.752
   14EMI    C03  250   3.234   2.416   2.837
   14EMI    H07  251   3.377   2.489   2.550
   14EMI    H09  252   3.032   2.372   2.776
   14EMI    H08  253   3.232   2.403   2.944
   14EMI    C05  254   3.485   2.485   2.807
   14EMI    H0B  255   3.532   2.557   2.744
   14EMI    H0C  256   3.478   2.523   2.907
   14EMI    H0D  257   3.542   2.395   2.807
   14EMI    N00  258   3.350   2.456   2.756
   14EMI    C06  259   3.110   2.428   2.493
   14EMI    H0F  260   3.117   2.330   2.451
   14EMI    C0N  261   2.963   2.462   2.521
   14EMI    H0O  262   2.908   2.459   2.430
   14EMI    H0P  263   2.922   2.390   2.590
   14EMI    H0Q  264   2.956   2.560   2.564
   14EMI    N02  265   3.186   2.431   2.619
   14EMI    H0E  266   3.151   2.499   2.425
   15EMI    C01  267   1.674   3.102   0.569
   15EMI    C04  268   1.460   3.130   0.505
   15EMI    C03  269   1.525   3.244   0.477
   15EMI    H07  270   1.765   3.059   0.608
   15EMI    H09  271   1.356   3.110   0.488
   15EMI    H08  272   1.485   3.332   0.432
   15EMI    C05  273   1.773   3.320   0.507
   15EMI    H0B  274   1.866   3.268   0.495
   15EMI    H0C  275   1.756   3.383   0.423
   15EMI    H0D  276   1.777   3.379   0.596
   15EMI    N00  277   1.664   3.222   0.519
   15EMI    C06  278   1.533   2.904   0.613
   15EMI    H0F  279   1.504   2.907   0.716
   15EMI    C0N  280   1.419   2.841   0.530
   15EMI    H0O  281   1.400   2.742   0.564
   15EMI    H0P  282   1.330   2.901   0.540
   15EMI    H0Q  283   1.448   2.838   0.426
   15EMI    N02  284   1.559   3.040   0.565
   15EMI    H0E  285   1.621   2.845   0.602
   16EMI    C01  286   5.051   1.659   1.894
   16EMI    C04  287   4.876   1.740   2.012
   16EMI    C03  288   4.885   1.609   2.039
   16EMI    H07  289   5.135   1.651   1.829
   16EMI    H09  290   4.804   1.809   2.051
   16EMI    H08  291   4.822   1.553   2.105
   16EMI    C05  292   5.048   1.421   1.960
   16EMI    H0B  293   5.153   1.420   1.942
   16EMI    H0C  294   5.027   1.375   2.055
   16EMI    H0D  295   4.998   1.367   1.883
   16EMI    N00  296   4.999   1.560   1.962
   16EMI    C06  297   5.014   1.901   1.859
   16EMI    H0F  298   4.959   1.912   1.768
   16EMI    C0N  299   4.972   2.011   1.958
   16EMI    H0O  300   4.993   2.107   1.915
   16EMI    H0P  301   4.867   2.004   1.978
   16EMI    H0Q  302   5.027   2.000   2.049
   16EMI    N02  303   4.985   1.769   1.918
   16EMI    H0E  304   5.119   1.909   1.839
   17EMI    C01  305   0.377   0.435   4.237
   17EMI    C04  306   0.375   0.257   4.376
   17EMI    C03  307   0.284   0.234   4.280
   17EMI    H07  308   0.401   0.529   4.192
   17EMI    H09  309   0.400   0.193   4.458
   17EMI    H08  310   0.222   0.148   4.271
   17EMI    C05  311   0.205   0.371   4.072
   17EMI    H0B  312   0.258   0.430   4.001
   17EMI    H0C  313   0.182   0.275   4.029
   17EMI    H0D  314   0.114   0.420   4.100
   17EMI    N00  315   0.288   0.351   4.192
   17EMI    C06  316   0.539   0.455   4.423
   17EMI    H0F  317   0.494   0.516   4.498
   17EMI    C0N  318   0.629   0.350   4.490
   17EMI    H0O  319   0.705   0.398   4.546
   17EMI    H0P  320   0.570   0.288   4.555
   17EMI    H0Q  321   0.674   0.288   4.414
   17EMI    N02  322   0.434   0.388   4.345
   17EMI    H0E  323   0.598   0.516   4.358
   18EMI    C01  324   2.925   2.178   2.891
   18EMI    C04  325   2.882   2.023   2.733
   18EMI    C03  326   2.804   2.128   2.707
   18EMI    H07  327   2.965   2.228   2.976
   18EMI    H09  328   2.887   1.931   2.677
   18EMI    H08  329   2.734   2.138   2.627
   18EMI    C05  330   2.771   2.359   2.824
   18EMI    H0B  331   2.841   2.427   2.869
   18EMI    H0C  332   2.744   2.395   2.727
   18EMI    H0D  333   2.684   2.352   2.885
   18EMI    N00  334   2.834   2.227   2.811
   18EMI    C06  335   3.058   1.972   2.918
   18EMI    H0F  336   3.010   1.911   2.992
   18EMI    C0N  337   3.125   1.881   2.814
   18EMI    H0O  338   3.198   1.818   2.861
   18EMI    H0P  339   3.051   1.820   2.767
   18EMI    H0Q  340   3.174   1.941   2.739
   18EMI    N02  341   2.959   2.057   2.853
   18EMI    H0E  342   3.133   2.033   2.965
   19EMI    C01  343   0.805   3.607   2.520
   19EMI    C04  344   0.961   3.767   2.490
   19EMI    C03  345   0.915   3.733   2.369
   19EMI    H07  346   0.739   3.536   2.566
   19EMI    H09  347   1.036   3.840   2.512
   19EMI    H08  348   0.946   3.773   2.275
   19EMI    C05  349   0.737   3.561   2.287
   19EMI    H0B  350   0.641   3.533   2.327
   19EMI    H0C  351   0.723   3.627   2.204
   19EMI    H0D  352   0.789   3.474   2.255
   19EMI    N00  353   0.815   3.629   2.392
   19EMI    C06  354   0.905   3.687   2.732
   19EMI    H0F  355   0.981   3.617   2.760
   19EMI    C0N  356   0.947   3.828   2.776
   19EMI    H0O  357   0.960   3.830   2.882
   19EMI    H0P  358   1.040   3.854   2.729
   19EMI    H0Q  359   0.872   3.899   2.748
   19EMI    N02  360   0.888   3.684   2.586
   19EMI    H0E  361   0.813   3.661   2.779
   20EMI    C01  362   2.384   0.922   0.284
   20EMI    C04  363   2.183   0.948   0.383
   20EMI    C03  364   2.252   0.859   0.455
   20EMI    H07  365   2.467   0.932   0.217
   20EMI    H09  366   2.084   0.983   0.402
   20EMI    H08  367   2.219   0.809   0.544
   20EMI    C05  368   2.491   0.757   0.433
   20EMI    H0B  369   2.585   0.799   0.404
   20EMI    H0C  370   2.488   0.746   0.539
   20EMI    H0D  371   2.481   0.660   0.387
   20EMI    N00  372   2.382   0.844   0.389
   20EMI    C06  373   2.238   1.083   0.167
   20EMI    H0F  374   2.193   1.032   0.085
   20EMI    C0N  375   2.140   1.188   0.222
   20EMI    H0O  376   2.116   1.259   0.145
   20EMI    H0P  377   2.051   1.140   0.255
   20EMI    H0Q  378   2.185   1.240   0.304
   20EMI    N02  379   2.271   0.987   0.273
   20EMI    H0E  380   2.327   1.132   0.133
   21EMI    C01  381   4.578   0.524   2.167
   21EMI    C04  382   4.417   0.682   2.158
   21EMI    C03  383   4.534   0.745   2.143
   21EMI    H07  384   4.629   0.431   2.175
   21EMI    H09  385   4.319   0.727   2.159
   21EMI    H08  386   4.550   0.849   2.129
   21EMI    C05  387   4.781   0.662   2.138
   21EMI    H0B  388   4.827   0.575   2.094
   21EMI    H0C  389   4.800   0.746   2.075
   21EMI    H0D  390   4.823   0.679   2.235
   21EMI    N00  391   4.636   0.640   2.149
   21EMI    C06  392   4.350   0.432   2.193
   21EMI    H0F  393   4.333   0.418   2.297
   21EMI    C0N  394   4.218   0.470   2.123
   21EMI    H0O  395   4.147   0.391   2.137
   21EMI    H0P  396   4.180   0.560   2.166
   21EMI    H0Q  397   4.235   0.484   2.019
   21EMI    N02  398   4.448   0.540   2.174
   21EMI    H0E  399   4.388   0.341   2.151
   22EMI    C01  400   1.558   2.491   3.283
   22EMI    C04  401   1.613   2.700   3.218
   22EMI    C03  402   1.714   2.619   3.182
   22EMI    H07  403   1.506   2.407   3.324
   22EMI    H09  404   1.607   2.806   3.202
   22EMI    H08  405   1.804   2.648   3.132
   22EMI    C05  406   1.755   2.363   3.208
   22EMI    H0B  407   1.690   2.279   3.198
   22EMI    H0C  408   1.815   2.372   3.119
   22EMI    H0D  409   1.819   2.349   3.292
   22EMI    N00  410   1.675   2.485   3.226
   22EMI    C06  411   1.385   2.659   3.339
   22EMI    H0F  412   1.399   2.686   3.442
   22EMI    C0N  413   1.335   2.781   3.260
   22EMI    H0O  414   1.242   2.814   3.301
   22EMI    H0P  415   1.407   2.860   3.267
   22EMI    H0Q  416   1.322   2.754   3.157
   22EMI    N02  417   1.514   2.614   3.283
   22EMI    H0E  418   1.314   2.580   3.332
   23EMI    C01  419   1.765   4.154   2.603
   23EMI    C04  420   1.591   4.019   2.651
   23EMI    C03  421   1.542   4.143   2.635
   23EMI    H07  422   1.864   4.191   2.583
   23EMI    H09  423   1.536   3.931   2.674
   23EMI    H08  424   1.440   4.173   2.643
   23EMI    C05  425   1.652   4.373   2.578
   23EMI    H0B  426   1.731   4.400   2.511
   23EMI    H0C  427   1.557   4.398   2.535
   23EMI    H0D  428   1.664   4.426   2.670
   23EMI    N00  429   1.657   4.228   2.604
   23EMI    C06  430   1.831   3.919   2.637
   23EMI    H0F  431   1.868   3.910   2.737
   23EMI    C0N  432   1.762   3.788   2.596
   23EMI    H0O  433   1.831   3.707   2.601
   23EMI    H0P  434   1.680   3.769   2.662
   23EMI    H0Q  435   1.725   3.797   2.495
   23EMI    N02  436   1.736   4.030   2.629
   23EMI    H0E  437   1.913   3.938   2.571
   24EMI    C01  438   3.164   0.357   2.741
   24EMI    C04  439   3.388   0.332   2.756
   24EMI    C03  440   3.336   0.212   2.727
   24EMI    H07  441   3.065   0.399   2.740
   24EMI    H09  442   3.491   0.357   2.769
   24EMI    H08  443   3.390   0.121   2.714
   24EMI    C05  444   3.093   0.126   2.689
   24EMI    H0B  445   3.009   0.169   2.639
   24EMI    H0C  446   3.138   0.051   2.627
   24EMI    H0D  447   3.060   0.081   2.781
   24EMI    N00  448   3.191   0.231   2.718
   24EMI    C06  449   3.282   0.568   2.792
   24EMI    H0F  450   3.275   0.584   2.898
   24EMI    C0N  451   3.416   0.623   2.741
   24EMI    H0O  452   3.421   0.728   2.762
   24EMI    H0P  453   3.496   0.573   2.790
   24EMI    H0Q  454   3.422   0.608   2.635
   24EMI    N02  455   3.274   0.424   2.764
   24EMI    H0E  456   3.201   0.619   2.744
   25EMI    C01  457   4.050   4.177   4.744
   25EMI    C04  458   3.935   4.367   4.788
   25EMI    C03  459   3.857   4.264   4.824
   25EMI    H07  460   4.126   4.108   4.714
   25EMI    H09  461   3.912   4.471   4.795
   25EMI    H08  462   3.759   4.269   4.865
   25EMI    C05  463   3.888   4.005   4.817
   25EMI    H0B  464   3.972   3.942   4.838
   25EMI    H0C  465   3.821   4.003   4.900
   25EMI    H0D  466   3.838   3.969   4.730
   25EMI    N00  467   3.934   4.143   4.794
   25EMI    C06  468   4.175   4.382   4.686
   25EMI    H0F  469   4.164   4.398   4.581
   25EMI    C0N  470   4.184   4.518   4.758
   25EMI    H0O  471   4.269   4.572   4.720
   25EMI    H0P  472   4.095   4.574   4.739
   25EMI    H0Q  473   4.195   4.502   4.863
   25EMI    N02  474   4.059   4.307   4.737
   25EMI    H0E  475   4.264   4.326   4.704
   26EMI    C01  476   2.149   3.892   3.279
   26EMI    C04  477   2.037   3.697   3.286
   26EMI    C03  478   1.954   3.788   3.233
   26EMI    H07  479   2.226   3.966   3.289
   26EMI    H09  480   2.015   3.593   3.303
   26EMI    H08  481   1.854   3.773   3.200
   26EMI    C05  482   1.980   4.042   3.180
   26EMI    H0B  483   2.062   4.099   3.141
   26EMI    H0C  484   1.908   4.025   3.103
   26EMI    H0D  485   1.934   4.096   3.260
   26EMI    N00  486   2.030   3.913   3.230
   26EMI    C06  487   2.282   3.706   3.374
   26EMI    H0F  488   2.278   3.714   3.480
   26EMI    C0N  489   2.290   3.558   3.334
   26EMI    H0O  490   2.378   3.514   3.376
   26EMI    H0P  491   2.203   3.506   3.369
   26EMI    H0Q  492   2.295   3.550   3.227
   26EMI    N02  493   2.162   3.767   3.315
   26EMI    H0E  494   2.369   3.757   3.338
   27EMI    C01  495   1.129   2.356   2.588
   27EMI    C04  496   1.297   2.506   2.605
   27EMI    C03  497   1.187   2.573   2.569
   27EMI    H07  498   1.073   2.265   2.588
   27EMI    H09  499   1.394   2.546   2.622
   27EMI    H08  500   1.179   2.679   2.552
   27EMI    C05  501   0.940   2.502   2.522
   27EMI    H0B  502   0.876   2.431   2.569
   27EMI    H0C  503   0.914   2.600   2.553
   27EMI    H0D  504   0.929   2.494   2.415
   27EMI    N00  505   1.080   2.474   2.559
   27EMI    C06  506   1.344   2.254   2.654
   27EMI    H0F  507   1.388   2.212   2.566
   27EMI    C0N  508   1.455   2.305   2.748
   27EMI    H0O  509   1.519   2.223   2.775
   27EMI    H0P  510   1.512   2.380   2.698
   27EMI    H0Q  511   1.410   2.346   2.836
   27EMI    N02  512   1.256   2.365   2.616
   27EMI    H0E  513   1.287   2.178   2.704
   28EMI    C01  514   2.370   2.003   2.741
   28EMI    C04  515   2.203   2.152   2.771
   28EMI    C03  516   2.146   2.033   2.750
   28EMI    H07  517   2.467   1.959   2.732
   28EMI    H09  518   2.153   2.245   2.789
   28EMI    H08  519   2.042   2.011   2.748
   28EMI    C05  520   2.243   1.794   2.705
   28EMI    H0B  521   2.327   1.742   2.745
   28EMI    H0C  522   2.153   1.758   2.751
   28EMI    H0D  523   2.238   1.778   2.599
   28EMI    N00  524   2.257   1.938   2.731
   28EMI    C06  525   2.451   2.233   2.783
   28EMI    H0F  526   2.474   2.276   2.688
   28EMI    C0N  527   2.399   2.342   2.878
   28EMI    H0O  528   2.474   2.417   2.890
   28EMI    H0P  529   2.311   2.387   2.836
   28EMI    H0Q  530   2.375   2.299   2.973
   28EMI    N02  531   2.348   2.130   2.765
   28EMI    H0E  532   2.539   2.189   2.824
   29EMI    C01  533   0.392   2.848   0.322
   29EMI    C04  534   0.478   2.667   0.218
   29EMI    C03  535   0.575   2.719   0.293
   29EMI    H07  536   0.325   2.924   0.355
   29EMI    H09  537   0.484   2.580   0.155
   29EMI    H08  538   0.675   2.683   0.302
   29EMI    C05  539   0.587   2.926   0.451
   29EMI    H0B  540   0.517   2.967   0.522
   29EMI    H0C  541   0.663   2.872   0.504
   29EMI    H0D  542   0.632   3.006   0.396
   29EMI    N00  543   0.517   2.836   0.359
   29EMI    C06  544   0.228   2.733   0.176
   29EMI    H0F  545   0.225   2.786   0.084
   29EMI    C0N  546   0.205   2.582   0.150
   29EMI    H0O  547   0.109   2.568   0.105
   29EMI    H0P  548   0.282   2.545   0.085
   29EMI    H0Q  549   0.209   2.529   0.243
   29EMI    N02  550   0.360   2.752   0.239
   29EMI    H0E  551   0.152   2.769   0.242
   30EMI    C01  552   0.751   2.249   2.170
   30EMI    C04  553   0.658   2.116   2.013
   30EMI    C03  554   0.579   2.224   2.026
   30EMI    H07  555   0.817   2.288   2.245
   30EMI    H09  556   0.644   2.033   1.947
   30EMI    H08  557   0.489   2.244   1.973
   30EMI    C05  558   0.591   2.437   2.176
   30EMI    H0B  559   0.673   2.499   2.207
   30EMI    H0C  560   0.537   2.485   2.097
   30EMI    H0D  561   0.526   2.421   2.259
   30EMI    N00  562   0.642   2.308   2.128
   30EMI    C06  563   0.881   2.042   2.128
   30EMI    H0F  564   0.855   1.972   2.205
   30EMI    C0N  565   0.910   1.967   1.997
   30EMI    H0O  566   0.991   1.899   2.012
   30EMI    H0P  567   0.823   1.912   1.968
   30EMI    H0Q  568   0.935   2.037   1.921
   30EMI    N02  569   0.769   2.135   2.107
   30EMI    H0E  570   0.967   2.097   2.158
   31EMI    C01  571   3.876   1.027   2.166
   31EMI    C04  572   3.908   1.191   2.318
   31EMI    C03  573   3.789   1.135   2.344
   31EMI    H07  574   3.889   0.959   2.085
   31EMI    H09  575   3.954   1.273   2.370
   31EMI    H08  576   3.721   1.162   2.423
   31EMI    C05  577   3.655   0.940   2.235
   31EMI    H0B  578   3.685   0.846   2.195
   31EMI    H0C  579   3.613   0.925   2.332
   31EMI    H0D  580   3.581   0.984   2.171
   31EMI    N00  581   3.771   1.029   2.245
   31EMI    C06  582   4.090   1.146   2.136
   31EMI    H0F  583   4.076   1.218   2.059
   31EMI    C0N  584   4.190   1.201   2.240
   31EMI    H0O  585   4.284   1.221   2.193
   31EMI    H0P  586   4.151   1.292   2.282
   31EMI    H0Q  587   4.204   1.129   2.318
   31EMI    N02  588   3.961   1.119   2.202
   31EMI    H0E  589   4.128   1.056   2.095
   32EMI    C01  590   1.073   2.827   3.974
   32EMI    C04  591   1.189   3.006   4.047
   32EMI    C03  592   1.148   2.938   4.155
   32EMI    H07  593   1.026   2.754   3.910
   32EMI    H09  594   1.246   3.096   4.046
   32EMI    H08  595   1.166   2.964   4.257
   32EMI    C05  596   1.009   2.720   4.187
   32EMI    H0B  597   1.009   2.627   4.134
   32EMI    H0C  598   1.063   2.708   4.278
   32EMI    H0D  599   0.908   2.749   4.209
   32EMI    N00  600   1.073   2.823   4.104
   32EMI    C06  601   1.160   2.968   3.790
   32EMI    H0F  602   1.080   3.031   3.758
   32EMI    C0N  603   1.294   3.043   3.776
   32EMI    H0O  604   1.309   3.070   3.674
   32EMI    H0P  605   1.291   3.132   3.836
   32EMI    H0Q  606   1.374   2.980   3.809
   32EMI    N02  607   1.139   2.931   3.931
   32EMI    H0E  608   1.162   2.880   3.730
   33EMI    C01  609   4.467   3.427   3.077
   33EMI    C04  610   4.502   3.598   2.934
   33EMI    C03  611   4.404   3.635   3.017
   33EMI    H07  612   4.474   3.333   3.128
   33EMI    H09  613   4.543   3.655   2.853
   33EMI    H08  614   4.351   3.728   3.017
   33EMI    C05  615   4.285   3.518   3.218
   33EMI    H0B  616   4.322   3.456   3.297
   33EMI    H0C  617   4.269   3.617   3.255
   33EMI    H0D  618   4.193   3.478   3.181
   33EMI    N00  619   4.383   3.523   3.109
   33EMI    C06  620   4.645   3.381   2.912
   33EMI    H0F  621   4.602   3.322   2.834
   33EMI    C0N  622   4.754   3.472   2.853
   33EMI    H0O  623   4.830   3.413   2.808
   33EMI    H0P  624   4.710   3.537   2.780
   33EMI    H0Q  625   4.797   3.531   2.932
   33EMI    N02  626   4.540   3.463   2.975
   33EMI    H0E  627   4.688   3.316   2.985
   34EMI    C01  628   3.981   3.431   0.932
   34EMI    C04  629   3.848   3.326   0.783
   34EMI    C03  630   3.967   3.266   0.778
   34EMI    H07  631   4.018   3.498   1.006
   34EMI    H09  632   3.761   3.301   0.726
   34EMI    H08  633   3.996   3.184   0.716
   34EMI    C05  634   4.193   3.306   0.904
   34EMI    H0B  635   4.214   3.331   1.006
   34EMI    H0C  636   4.210   3.201   0.888
   34EMI    H0D  637   4.256   3.363   0.839
   34EMI    N00  638   4.052   3.336   0.875
   34EMI    C06  639   3.753   3.524   0.923
   34EMI    H0F  640   3.756   3.611   0.861
   34EMI    C0N  641   3.616   3.455   0.908
   34EMI    H0O  642   3.538   3.522   0.937
   34EMI    H0P  643   3.602   3.426   0.806
   34EMI    H0Q  644   3.613   3.368   0.970
   34EMI    N02  645   3.860   3.432   0.884
   34EMI    H0E  646   3.767   3.553   1.026
   35EMI    C01  647   4.697   1.834   4.737
   35EMI    C04  648   4.581   1.662   4.826
   35EMI    C03  649   4.711   1.629   4.832
   35EMI    H07  650   4.723   1.927   4.692
   35EMI    H09  651   4.498   1.603   4.859
   35EMI    H08  652   4.753   1.539   4.871
   35EMI    C05  653   4.930   1.752   4.760
   35EMI    H0B  654   4.959   1.855   4.766
   35EMI    H0C  655   4.977   1.697   4.838
   35EMI    H0D  656   4.959   1.712   4.665
   35EMI    N00  657   4.784   1.743   4.774
   35EMI    C06  658   4.453   1.871   4.737
   35EMI    H0F  659   4.417   1.847   4.639
   35EMI    C0N  660   4.346   1.835   4.841
   35EMI    H0O  661   4.256   1.891   4.821
   35EMI    H0P  662   4.324   1.730   4.835
   35EMI    H0Q  663   4.381   1.859   4.939
   35EMI    N02  664   4.575   1.795   4.764
   35EMI    H0E  665   4.474   1.976   4.742
   36EMI    C01  666   3.483   3.082   2.981
   36EMI    C04  667   3.488   3.052   3.204
   36EMI    C03  668   3.469   2.932   3.149
   36EMI    H07  669   3.485   3.127   2.883
   36EMI    H09  670   3.494   3.074   3.309
   36EMI    H08  671   3.459   2.838   3.199
   36EMI    C05  672   3.449   2.850   2.901
   36EMI    H0B  673   3.500   2.879   2.812
   36EMI    H0C  674   3.489   2.758   2.937
   36EMI    H0D  675   3.345   2.838   2.880
   36EMI    N00  676   3.467   2.954   3.004
   36EMI    C06  677   3.516   3.292   3.106
   36EMI    H0F  678   3.420   3.341   3.113
   36EMI    C0N  679   3.598   3.322   3.233
   36EMI    H0O  680   3.612   3.427   3.243
   36EMI    H0P  681   3.545   3.285   3.319
   36EMI    H0Q  682   3.693   3.273   3.226
   36EMI    N02  683   3.496   3.147   3.093
   36EMI    H0E  684   3.568   3.329   3.020
   37EMI    C01  685   1.148   1.993   3.410
   37EMI    C04  686   1.035   1.906   3.586
   37EMI    C03  687   1.164   1.871   3.599
   37EMI    H07  688   1.172   2.044   3.319
   37EMI    H09  689   0.954   1.882   3.651
   37EMI    H08  690   1.206   1.813   3.678
   37EMI    C05  691   1.378   1.915   3.457
   37EMI    H0B  692   1.412   2.002   3.404
   37EMI    H0C  693   1.431   1.907   3.549
   37EMI    H0D  694   1.395   1.828   3.397
   37EMI    N00  695   1.234   1.928   3.484
   37EMI    C06  696   0.906   2.046   3.406
   37EMI    H0F  697   0.859   1.976   3.340
   37EMI    C0N  698   0.810   2.081   3.521
   37EMI    H0O  699   0.721   2.125   3.480
   37EMI    H0P  700   0.784   1.993   3.575
   37EMI    H0Q  701   0.857   2.151   3.587
   37EMI    N02  702   1.028   1.985   3.462
   37EMI    H0E  703   0.932   2.134   3.353
   38EMI    C01  704   0.879   2.668   0.507
   38EMI    C04  705   1.085   2.613   0.582
   38EMI    C03  706   1.100   2.667   0.461
   38EMI    H07  707   0.774   2.682   0.499
   38EMI    H09  708   1.162   2.576   0.647
   38EMI    H08  709   1.193   2.682   0.408
   38EMI    C05  710   0.934   2.763   0.285
   38EMI    H0B  711   0.845   2.823   0.295
   38EMI    H0C  712   1.015   2.825   0.254
   38EMI    H0D  713   0.916   2.687   0.212
   38EMI    N00  714   0.966   2.701   0.414
   38EMI    C06  715   0.876   2.566   0.732
   38EMI    H0F  716   0.851   2.463   0.720
   38EMI    C0N  717   0.972   2.582   0.851
   38EMI    H0O  718   0.925   2.547   0.940
   38EMI    H0P  719   1.061   2.526   0.833
   38EMI    H0Q  720   0.997   2.686   0.863
   38EMI    N02  721   0.941   2.615   0.609
   38EMI    H0E  722   0.787   2.622   0.750
   39EMI    C01  723   3.853   1.797   1.050
   39EMI    C04  724   3.754   1.989   1.116
   39EMI    C03  725   3.675   1.933   1.024
   39EMI    H07  726   3.922   1.716   1.040
   39EMI    H09  727   3.737   2.081   1.169
   39EMI    H08  728   3.582   1.971   0.988
   39EMI    C05  729   3.691   1.715   0.882
   39EMI    H0B  730   3.725   1.616   0.907
   39EMI    H0C  731   3.584   1.717   0.882
   39EMI    H0D  732   3.728   1.742   0.786
   39EMI    N00  733   3.742   1.809   0.983
   39EMI    C06  734   3.982   1.919   1.222
   39EMI    H0F  735   4.059   1.975   1.172
   39EMI    C0N  736   3.935   1.997   1.346
   39EMI    H0O  737   4.018   2.012   1.413
   39EMI    H0P  738   3.896   2.092   1.316
   39EMI    H0Q  739   3.859   1.942   1.397
   39EMI    N02  740   3.868   1.899   1.131
   39EMI    H0E  741   4.021   1.824   1.252
   40EMI    C01  742   1.384   2.530   3.001
   40EMI    C04  743   1.449   2.325   3.068
   40EMI    C03  744   1.551   2.379   3.002
   40EMI    H07  745   1.326   2.619   2.984
   40EMI    H09  746   1.446   2.228   3.114
   40EMI    H08  747   1.647   2.334   2.983
   40EMI    C05  748   1.586   2.608   2.882
   40EMI    H0B  749   1.556   2.708   2.908
   40EMI    H0C  750   1.690   2.595   2.905
   40EMI    H0D  751   1.570   2.593   2.778
   40EMI    N00  752   1.506   2.512   2.959
   40EMI    C06  753   1.209   2.410   3.128
   40EMI    H0F  754   1.142   2.367   3.057
   40EMI    C0N  755   1.220   2.317   3.251
   40EMI    H0O  756   1.123   2.306   3.295
   40EMI    H0P  757   1.256   2.222   3.220
   40EMI    H0Q  758   1.287   2.360   3.322
   40EMI    N02  759   1.342   2.425   3.066
   40EMI    H0E  760   1.173   2.505   3.158
   41EMI    C01  761   4.584   2.947   0.749
   41EMI    C04  762   4.739   3.111   0.743
   41EMI    C03  763   4.804   2.994   0.727
   41EMI    H07  764   4.491   2.894   0.755
   41EMI    H09  765   4.783   3.208   0.746
   41EMI    H08  766   4.909   2.981   0.714
   41EMI    C05  767   4.725   2.746   0.718
   41EMI    H0B  768   4.639   2.700   0.673
   41EMI    H0C  769   4.811   2.730   0.656
   41EMI    H0D  770   4.742   2.703   0.814
   41EMI    N00  771   4.701   2.890   0.731
   41EMI    C06  772   4.488   3.173   0.776
   41EMI    H0F  773   4.473   3.189   0.881
   41EMI    C0N  774   4.524   3.306   0.709
   41EMI    H0O  775   4.444   3.376   0.723
   41EMI    H0P  776   4.614   3.345   0.753
   41EMI    H0Q  777   4.539   3.291   0.604
   41EMI    N02  778   4.597   3.077   0.757
   41EMI    H0E  779   4.398   3.134   0.733
   42EMI    C01  780   4.991   1.738   3.271
   42EMI    C04  781   4.813   1.621   3.200
   42EMI    C03  782   4.775   1.749   3.207
   42EMI    H07  783   5.089   1.765   3.305
   42EMI    H09  784   4.752   1.538   3.170
   42EMI    H08  785   4.679   1.789   3.184
   42EMI    C05  786   4.899   1.968   3.276
   42EMI    H0B  787   4.999   2.002   3.258
   42EMI    H0C  788   4.832   2.017   3.210
   42EMI    H0D  789   4.872   1.989   3.377
   42EMI    N00  790   4.893   1.823   3.254
   42EMI    C06  791   5.037   1.496   3.250
   42EMI    H0F  792   5.028   1.453   3.348
   42EMI    C0N  793   4.990   1.394   3.145
   42EMI    H0O  794   5.051   1.306   3.151
   42EMI    H0P  795   4.888   1.368   3.164
   42EMI    H0Q  796   4.999   1.437   3.047
   42EMI    N02  797   4.953   1.617   3.242
   42EMI    H0E  798   5.139   1.523   3.232
   43EMI    C01  799   1.501   4.681   2.511
   43EMI    C04  800   1.446   4.843   2.363
   43EMI    C03  801   1.367   4.738   2.338
   43EMI    H07  802   1.548   4.627   2.590
   43EMI    H09  803   1.447   4.937   2.311
   43EMI    H08  804   1.292   4.730   2.263
   43EMI    C05  805   1.345   4.501   2.446
   43EMI    H0B  806   1.349   4.468   2.548
   43EMI    H0C  807   1.243   4.505   2.415
   43EMI    H0D  808   1.398   4.433   2.384
   43EMI    N00  809   1.405   4.635   2.435
   43EMI    C06  810   1.635   4.887   2.537
   43EMI    H0F  811   1.729   4.871   2.487
   43EMI    C0N  812   1.595   5.035   2.525
   43EMI    H0O  813   1.671   5.096   2.571
   43EMI    H0P  814   1.586   5.062   2.422
   43EMI    H0Q  815   1.502   5.051   2.575
   43EMI    N02  816   1.532   4.803   2.475
   43EMI    H0E  817   1.645   4.861   2.641
   44EMI    C01  818   0.893   3.344   2.476
   44EMI    C04  819   0.774   3.341   2.668
   44EMI    C03  820   0.898   3.380   2.699
   44EMI    H07  821   0.921   3.337   2.373
   44EMI    H09  822   0.691   3.328   2.735
   44EMI    H08  823   0.935   3.405   2.796
   44EMI    C05  824   1.114   3.418   2.558
   44EMI    H0B  825   1.130   3.460   2.461
   44EMI    H0C  826   1.141   3.489   2.633
   44EMI    H0D  827   1.175   3.331   2.569
   44EMI    N00  828   0.973   3.381   2.573
   44EMI    C06  829   0.658   3.275   2.443
   44EMI    H0F  830   0.656   3.168   2.438
   44EMI    C0N  831   0.528   3.325   2.509
   44EMI    H0O  832   0.444   3.293   2.451
   44EMI    H0P  833   0.520   3.285   2.608
   44EMI    H0Q  834   0.530   3.432   2.514
   44EMI    N02  835   0.773   3.319   2.523
   44EMI    H0E  836   0.666   3.315   2.344
   45EMI    C01  837   3.466   4.479   0.383
   45EMI    C04  838   3.401   4.285   0.478
   45EMI    C03  839   3.442   4.256   0.354
   45EMI    H07  840   3.488   4.582   0.366
   45EMI    H09  841   3.363   4.216   0.551
   45EMI    H08  842   3.444   4.160   0.307
   45EMI    C05  843   3.537   4.402   0.159
   45EMI    H0B  844   3.604   4.485   0.158
   45EMI    H0C  845   3.588   4.313   0.129
   45EMI    H0D  846   3.456   4.421   0.091
   45EMI    N00  847   3.484   4.384   0.295
   45EMI    C06  848   3.385   4.506   0.615
   45EMI    H0F  849   3.283   4.540   0.609
   45EMI    C0N  850   3.404   4.417   0.739
   45EMI    H0O  851   3.380   4.473   0.827
   45EMI    H0P  852   3.339   4.333   0.732
   45EMI    H0Q  853   3.505   4.384   0.744
   45EMI    N02  854   3.418   4.429   0.494
   45EMI    H0E  855   3.450   4.591   0.621
   46EMI    C01  856   0.796   0.534   2.804
   46EMI    C04  857   0.900   0.591   2.612
   46EMI    C03  858   0.821   0.693   2.646
   46EMI    H07  859   0.763   0.481   2.891
   46EMI    H09  860   0.964   0.584   2.526
   46EMI    H08  861   0.809   0.786   2.593
   46EMI    C05  862   0.659   0.736   2.846
   46EMI    H0B  863   0.666   0.712   2.950
   46EMI    H0C  864   0.681   0.839   2.831
   46EMI    H0D  865   0.560   0.715   2.811
   46EMI    N00  866   0.755   0.654   2.771
   46EMI    C06  867   0.948   0.358   2.721
   46EMI    H0F  868   0.888   0.286   2.669
   46EMI    C0N  869   1.086   0.369   2.654
   46EMI    H0O  870   1.135   0.273   2.657
   46EMI    H0P  871   1.074   0.399   2.552
   46EMI    H0Q  872   1.146   0.441   2.705
   46EMI    N02  873   0.881   0.489   2.716
   46EMI    H0E  874   0.960   0.328   2.823
   47EMI    C01  875   1.382   0.637   4.622
   47EMI    C04  876   1.424   0.766   4.442
   47EMI    C03  877   1.467   0.643   4.413
   47EMI    H07  878   1.350   0.604   4.719
   47EMI    H09  879   1.429   0.852   4.379
   47EMI    H08  880   1.513   0.610   4.323
   47EMI    C05  881   1.468   0.418   4.547
   47EMI    H0B  882   1.396   0.374   4.612
   47EMI    H0C  883   1.463   0.371   4.451
   47EMI    H0D  884   1.566   0.406   4.588
   47EMI    N00  885   1.438   0.562   4.532
   47EMI    C06  886   1.310   0.872   4.652
   47EMI    H0F  887   1.387   0.922   4.707
   47EMI    C0N  888   1.246   0.971   4.553
   47EMI    H0O  889   1.203   1.053   4.606
   47EMI    H0P  890   1.321   1.008   4.485
   47EMI    H0Q  891   1.170   0.921   4.497
   47EMI    N02  892   1.369   0.760   4.578
   47EMI    H0E  893   1.236   0.836   4.719
   48EMI    C01  894   2.740   1.445   4.623
   48EMI    C04  895   2.797   1.517   4.417
   48EMI    C03  896   2.666   1.490   4.415
   48EMI    H07  897   2.744   1.416   4.726
   48EMI    H09  898   2.857   1.553   4.336
   48EMI    H08  899   2.600   1.501   4.332
   48EMI    C05  900   2.498   1.402   4.595
   48EMI    H0B  901   2.488   1.423   4.699
   48EMI    H0C  902   2.424   1.457   4.540
   48EMI    H0D  903   2.486   1.298   4.578
   48EMI    N00  904   2.632   1.444   4.550
   48EMI    C06  905   2.980   1.501   4.603
   48EMI    H0F  906   3.033   1.410   4.587
   48EMI    C0N  907   3.050   1.615   4.527
   48EMI    H0O  908   3.150   1.625   4.563
   48EMI    H0P  909   3.052   1.592   4.422
   48EMI    H0Q  910   2.997   1.707   4.543
   48EMI    N02  911   2.842   1.487   4.553
   48EMI    H0E  912   2.978   1.524   4.707
   49EMI    C01  913   2.194   0.782   3.906
   49EMI    C04  914   2.175   0.629   3.742
   49EMI    C03  915   2.192   0.747   3.682
   49EMI    H07  916   2.200   0.829   4.001
   49EMI    H09  917   2.162   0.534   3.693
   49EMI    H08  918   2.196   0.767   3.577
   49EMI    C05  919   2.224   0.990   3.774
   49EMI    H0B  920   2.280   1.028   3.857
   49EMI    H0C  921   2.279   1.008   3.684
   49EMI    H0D  922   2.129   1.039   3.769
   49EMI    N00  923   2.204   0.845   3.791
   49EMI    C06  924   2.162   0.553   3.991
   49EMI    H0F  925   2.058   0.542   4.016
   49EMI    C0N  926   2.217   0.418   3.941
   49EMI    H0O  927   2.206   0.344   4.018
   49EMI    H0P  928   2.163   0.388   3.854
   49EMI    H0Q  929   2.321   0.429   3.916
   49EMI    N02  930   2.177   0.654   3.886
   49EMI    H0E  931   2.216   0.583   4.078
   50EMI    C01  932   1.789   0.227   0.362
   50EMI    C04  933   1.804   0.382   0.525
   50EMI    C03  934   1.729   0.435   0.428
   50EMI    H07  935   1.800   0.137   0.305
   50EMI    H09  936   1.831   0.428   0.618
   50EMI    H08  937   1.684   0.532   0.426
   50EMI    C05  938   1.649   0.345   0.196
   50EMI    H0B  939   1.615   0.249   0.164
   50EMI    H0C  940   1.565   0.410   0.209
   50EMI    H0D  941   1.715   0.386   0.122
   50EMI    N00  942   1.721   0.332   0.323
   50EMI    C06  943   1.923   0.152   0.555
   50EMI    H0F  944   2.026   0.166   0.530
   50EMI    C0N  945   1.903   0.174   0.706
   50EMI    H0O  946   1.963   0.105   0.761
   50EMI    H0P  947   1.933   0.274   0.732
   50EMI    H0Q  948   1.800   0.160   0.731
   50EMI    N02  949   1.841   0.248   0.480
   50EMI    H0E  950   1.894   0.052   0.530
   51EMI    C01  951   2.216   2.755   2.608
   51EMI    C04  952   2.043   2.615   2.647
   51EMI    C03  953   2.156   2.543   2.658
   51EMI    H07  954   2.274   2.842   2.586
   51EMI    H09  955   1.943   2.580   2.659
   51EMI    H08  956   2.163   2.439   2.681
   51EMI    C05  957   2.409   2.602   2.634
   51EMI    H0B  958   2.466   2.688   2.664
   51EMI    H0C  959   2.426   2.522   2.703
   51EMI    H0D  960   2.439   2.572   2.536
   51EMI    N00  961   2.266   2.636   2.633
   51EMI    C06  962   1.996   2.866   2.593
   51EMI    H0F  963   1.970   2.872   2.489
   51EMI    C0N  964   1.868   2.848   2.677
   51EMI    H0O  965   1.803   2.931   2.661
   51EMI    H0P  966   1.819   2.758   2.647
   51EMI    H0Q  967   1.894   2.842   2.781
   51EMI    N02  968   2.086   2.752   2.615
   51EMI    H0E  969   2.045   2.956   2.622
   52EMI    C01  970   0.668   1.270   0.340
   52EMI    C04  971   0.544   1.331   0.161
   52EMI    C03  972   0.637   1.426   0.179
   52EMI    H07  973   0.707   1.216   0.424
   52EMI    H09  974   0.469   1.329   0.085
   52EMI    H08  975   0.652   1.514   0.121
   52EMI    C05  976   0.830   1.456   0.352
   52EMI    H0B  977   0.898   1.387   0.397
   52EMI    H0C  978   0.880   1.511   0.275
   52EMI    H0D  979   0.795   1.524   0.427
   52EMI    N00  980   0.716   1.383   0.295
   52EMI    C06  981   0.488   1.109   0.287
   52EMI    H0F  982   0.406   1.130   0.352
   52EMI    C0N  983   0.434   1.060   0.151
   52EMI    H0O  984   0.376   0.971   0.166
   52EMI    H0P  985   0.372   1.136   0.108
   52EMI    H0Q  986   0.516   1.040   0.085
   52EMI    N02  987   0.567   1.232   0.267
   52EMI    H0E  988   0.550   1.034   0.330
   53EMI    C01  989   1.571   4.197   1.089
   53EMI    C04  990   1.359   4.270   1.063
   53EMI    C03  991   1.353   4.140   1.096
   53EMI    H07  992   1.678   4.193   1.093
   53EMI    H09  993   1.277   4.335   1.043
   53EMI    H08  994   1.265   4.081   1.108
   53EMI    C05  995   1.535   3.960   1.149
   53EMI    H0B  996   1.627   3.965   1.202
   53EMI    H0C  997   1.460   3.915   1.210
   53EMI    H0D  998   1.548   3.902   1.060
   53EMI    N00  999   1.492   4.096   1.112
   53EMI    C06 1000   1.557   4.436   1.027
   53EMI    H0F 1001   1.574   4.443   0.921
   53EMI    C0N 1002   1.458   4.545   1.070
   53EMI    H0O 1003   1.498   4.642   1.047
   53EMI    H0P 1004   1.365   4.532   1.018
   53EMI    H0Q 1005   1.441   4.539   1.176
   53EMI    N02 1006   1.502   4.304   1.059
   53EMI    H0E 1007   1.650   4.449   1.079
   54EMI    C01 1008   3.217   0.359   3.438
   54EMI    C04 1009   3.205   0.417   3.655
   54EMI    C03 1010   3.246   0.525   3.588
   54EMI    H07 1011   3.212   0.303   3.346
   54EMI    H09 1012   3.188   0.409   3.761
   54EMI    H08 1013   3.270   0.621   3.629
   54EMI    C05 1014   3.294   0.570   3.336
   54EMI    H0B 1015   3.244   0.539   3.246
   54EMI    H0C 1016   3.269   0.672   3.357
   54EMI    H0D 1017   3.400   0.562   3.321
   54EMI    N00 1018   3.253   0.484   3.447
   54EMI    C06 1019   3.141   0.174   3.583
   54EMI    H0F 1020   3.226   0.112   3.603
   54EMI    C0N 1021   3.048   0.175   3.706
   54EMI    H0O 1022   3.015   0.075   3.726
   54EMI    H0P 1023   3.101   0.213   3.791
   54EMI    H0Q 1024   2.963   0.237   3.686
   54EMI    N02 1025   3.186   0.311   3.555
   54EMI    H0E 1026   3.088   0.136   3.498
   55EMI    C01 1027   4.107   4.683   3.729
   55EMI    C04 1028   3.898   4.715   3.649
   55EMI    C03 1029   3.956   4.835   3.657
   55EMI    H07 1030   4.196   4.637   3.766
   55EMI    H09 1031   3.799   4.693   3.615
   55EMI    H08 1032   3.913   4.929   3.630
   55EMI    C05 1033   4.193   4.914   3.734
   55EMI    H0B 1034   4.290   4.873   3.720
   55EMI    H0C 1035   4.179   4.996   3.666
   55EMI    H0D 1036   4.183   4.950   3.835
   55EMI    N00 1037   4.091   4.811   3.709
   55EMI    C06 1038   3.978   4.473   3.705
   55EMI    H0F 1039   3.939   4.448   3.802
   55EMI    C0N 1040   3.879   4.427   3.597
   55EMI    H0O 1041   3.865   4.321   3.603
   55EMI    H0P 1042   3.785   4.477   3.611
   55EMI    H0Q 1043   3.918   4.452   3.500
   55EMI    N02 1044   3.998   4.618   3.696
   55EMI    H0E 1045   4.072   4.423   3.691
   56EMI    C01 1046   3.142   3.678   3.539
   56EMI    C04 1047   3.294   3.511   3.539
   56EMI    C03 1048   3.225   3.502   3.653
   56EMI    H07 1049   3.083   3.763   3.510
   56EMI    H09 1050   3.373   3.447   3.506
   56EMI    H08 1051   3.239   3.430   3.731
   56EMI    C05 1052   3.029   3.641   3.756
   56EMI    H0B 1053   2.942   3.686   3.712
   56EMI    H0C 1054   3.002   3.551   3.806
   56EMI    H0D 1055   3.072   3.709   3.826
   56EMI    N00 1056   3.127   3.611   3.651
   56EMI    C06 1057   3.282   3.674   3.335
   56EMI    H0F 1058   3.359   3.746   3.348
   56EMI    C0N 1059   3.335   3.556   3.252
   56EMI    H0O 1060   3.367   3.591   3.157
   56EMI    H0P 1061   3.418   3.511   3.304
   56EMI    H0Q 1062   3.258   3.483   3.240
   56EMI    N02 1063   3.237   3.626   3.467
   56EMI    H0E 1064   3.199   3.719   3.284
   57EMI    C01 1065   4.398   1.471   2.422
   57EMI    C04 1066   4.393   1.312   2.583
   57EMI    C03 1067   4.474   1.268   2.486
   57EMI    H07 1068   4.381   1.560   2.367
   57EMI    H09 1069   4.367   1.261   2.674
   57EMI    H08 1070   4.527   1.175   2.484
   57EMI    C05 1071   4.552   1.368   2.258
   57EMI    H0B 1072   4.578   1.468   2.229
   57EMI    H0C 1073   4.641   1.311   2.272
   57EMI    H0D 1074   4.492   1.324   2.182
   57EMI    N00 1075   4.476   1.373   2.384
   57EMI    C06 1076   4.253   1.530   2.613
   57EMI    H0F 1077   4.152   1.507   2.585
   57EMI    C0N 1078   4.270   1.506   2.764
   57EMI    H0O 1079   4.203   1.569   2.818
   57EMI    H0P 1080   4.249   1.404   2.787
   57EMI    H0Q 1081   4.371   1.529   2.792
   57EMI    N02 1082   4.345   1.443   2.539
   57EMI    H0E 1083   4.274   1.632   2.590
   58EMI    C01 1084   0.372   5.015   3.589
   58EMI    C04 1085   0.532   4.887   3.494
   58EMI    C03 1086   0.427   4.888   3.411
   58EMI    H07 1087   0.319   5.078   3.657
   58EMI    H09 1088   0.625   4.837   3.479
   58EMI    H08 1089   0.419   4.837   3.317
   58EMI    C05 1090   0.192   5.000   3.421
   58EMI    H0B 1091   0.160   5.096   3.455
   58EMI    H0C 1092   0.196   4.999   3.314
   58EMI    H0D 1093   0.123   4.926   3.454
   58EMI    N00 1094   0.325   4.971   3.475
   58EMI    C06 1095   0.578   4.999   3.725
   58EMI    H0F 1096   0.561   4.925   3.800
   58EMI    C0N 1097   0.726   4.998   3.683
   58EMI    H0O 1098   0.787   5.019   3.768
   58EMI    H0P 1099   0.751   4.901   3.644
   58EMI    H0Q 1100   0.743   5.072   3.608
   58EMI    N02 1101   0.494   4.970   3.608
   58EMI    H0E 1102   0.553   5.096   3.764
   59EMI    C01 1103   2.846   0.883   0.253
   59EMI    C04 1104   3.064   0.936   0.280
   59EMI    C03 1105   2.999   1.048   0.246
   59EMI    H07 1106   2.754   0.828   0.249
   59EMI    H09 1107   3.168   0.925   0.300
   59EMI    H08 1108   3.042   1.145   0.233
   59EMI    C05 1109   2.750   1.102   0.192
   59EMI    H0B 1110   2.658   1.067   0.236
   59EMI    H0C 1111   2.772   1.200   0.228
   59EMI    H0D 1112   2.740   1.104   0.086
   59EMI    N00 1113   2.859   1.011   0.229
   59EMI    C06 1114   2.987   0.689   0.317
   59EMI    H0F 1115   3.009   0.635   0.227
   59EMI    C0N 1116   3.105   0.679   0.414
   59EMI    H0O 1117   3.123   0.576   0.438
   59EMI    H0P 1118   3.193   0.721   0.369
   59EMI    H0Q 1119   3.083   0.733   0.504
   59EMI    N02 1120   2.962   0.830   0.284
   59EMI    H0E 1121   2.899   0.648   0.363
   60EMI    C01 1122   0.841   4.706   2.616
   60EMI    C04 1123   0.975   4.873   2.546
   60EMI    C03 1124   1.051   4.763   2.556
   60EMI    H07 1125   0.755   4.651   2.649
   60EMI    H09 1126   1.007   4.971   2.515
   60EMI    H08 1127   1.155   4.754   2.535
   60EMI    C05 1128   0.999   4.517   2.627
   60EMI    H0B 1129   0.916   4.453   2.608
   60EMI    H0C 1130   1.080   4.490   2.562
   60EMI    H0D 1131   1.030   4.506   2.729
   60EMI    N00 1132   0.961   4.657   2.602
   60EMI    C06 1133   0.723   4.922   2.590
   60EMI    H0F 1134   0.715   4.967   2.687
   60EMI    C0N 1135   0.737   5.032   2.484
   60EMI    H0O 1136   0.652   5.097   2.487
   60EMI    H0P 1137   0.826   5.089   2.504
   60EMI    H0Q 1138   0.744   4.987   2.387
   60EMI    N02 1139   0.840   4.833   2.586
   60EMI    H0E 1140   0.634   4.865   2.571
   61EMI    C01 1141   1.513   0.369   4.834
   61EMI    C04 1142   1.723   0.409   4.763
   61EMI    C03 1143   1.692   0.284   4.726
   61EMI    H07 1144   1.416   0.380   4.878
   61EMI    H09 1145   1.815   0.461   4.745
   61EMI    H08 1146   1.755   0.216   4.673
   61EMI    C05 1147   1.479   0.137   4.756
   61EMI    H0B 1148   1.375   0.159   4.750
   61EMI    H0C 1149   1.510   0.088   4.666
   61EMI    H0D 1150   1.497   0.072   4.839
   61EMI    N00 1151   1.556   0.261   4.773
   61EMI    C06 1152   1.592   0.596   4.891
   61EMI    H0F 1153   1.626   0.594   4.992
   61EMI    C0N 1154   1.679   0.695   4.810
   61EMI    H0O 1155   1.670   0.793   4.853
   61EMI    H0P 1156   1.781   0.664   4.814
   61EMI    H0Q 1157   1.646   0.697   4.709
   61EMI    N02 1158   1.605   0.461   4.832
   61EMI    H0E 1159   1.490   0.627   4.887
   62EMI    C01 1160   3.885   2.059   1.689
   62EMI    C04 1161   3.820   1.979   1.890
   62EMI    C03 1162   3.710   2.017   1.825
   62EMI    H07 1163   3.944   2.089   1.605
   62EMI    H09 1164   3.826   1.937   1.988
   62EMI    H08 1165   3.609   2.011   1.860
   62EMI    C05 1166   3.667   2.121   1.589
   62EMI    H0B 1167   3.712   2.103   1.494
   62EMI    H0C 1168   3.572   2.073   1.594
   62EMI    H0D 1169   3.655   2.227   1.603
   62EMI    N00 1170   3.755   2.068   1.695
   62EMI    C06 1171   4.074   1.983   1.828
   62EMI    H0F 1172   4.117   2.069   1.874
   62EMI    C0N 1173   4.087   1.862   1.923
   62EMI    H0O 1174   4.190   1.844   1.944
   62EMI    H0P 1175   4.035   1.883   2.014
   62EMI    H0Q 1176   4.044   1.776   1.877
   62EMI    N02 1177   3.932   2.008   1.799
   62EMI    H0E 1178   4.126   1.962   1.737
   63EMI    C01 1179   2.091   4.065   2.920
   63EMI    C04 1180   2.300   4.139   2.957
   63EMI    C03 1181   2.219   4.245   2.968
   63EMI    H07 1182   2.007   4.002   2.898
   63EMI    H09 1183   2.407   4.139   2.968
   63EMI    H08 1184   2.246   4.346   2.990
   63EMI    C05 1185   1.960   4.273   2.945
   63EMI    H0B 1186   1.878   4.212   2.976
   63EMI    H0C 1187   1.971   4.355   3.013
   63EMI    H0D 1188   1.941   4.311   2.847
   63EMI    N00 1189   2.083   4.193   2.943
   63EMI    C06 1190   2.261   3.887   2.904
   63EMI    H0F 1191   2.283   3.872   2.801
   63EMI    C0N 1192   2.388   3.862   2.988
   63EMI    H0O 1193   2.422   3.761   2.972
   63EMI    H0P 1194   2.465   3.930   2.957
   63EMI    H0Q 1195   2.366   3.876   3.091
   63EMI    N02 1196   2.215   4.025   2.925
   63EMI    H0E 1197   2.185   3.818   2.935
   64EMI    C01 1198   2.545   0.403   1.578
   64EMI    C04 1199   2.567   0.181   1.615
   64EMI    C03 1200   2.635   0.244   1.711
   64EMI    H07 1201   2.517   0.497   1.536
   64EMI    H09 1202   2.557   0.075   1.602
   64EMI    H08 1203   2.690   0.199   1.791
   64EMI    C05 1204   2.677   0.496   1.765
   64EMI    H0B 1205   2.613   0.582   1.760
   64EMI    H0C 1206   2.686   0.464   1.867
   64EMI    H0D 1207   2.773   0.521   1.727
   64EMI    N00 1208   2.619   0.387   1.685
   64EMI    C06 1209   2.427   0.264   1.411
   64EMI    H0F 1210   2.489   0.257   1.324
   64EMI    C0N 1211   2.348   0.133   1.427
   64EMI    H0O 1212   2.287   0.117   1.340
   64EMI    H0P 1213   2.416   0.051   1.439
   64EMI    H0Q 1214   2.285   0.139   1.514
   64EMI    N02 1215   2.510   0.286   1.530
   64EMI    H0E 1216   2.358   0.346   1.400
   65EMI    C01 1217   0.621   2.472   1.695
   65EMI    C04 1218   0.779   2.406   1.548
   65EMI    C03 1219   0.757   2.536   1.527
   65EMI    H07 1220   0.548   2.473   1.774
   65EMI    H09 1221   0.847   2.343   1.496
   65EMI    H08 1222   0.805   2.599   1.455
   65EMI    C05 1223   0.599   2.712   1.638
   65EMI    H0B 1224   0.570   2.728   1.740
   65EMI    H0C 1225   0.673   2.784   1.611
   65EMI    H0D 1226   0.513   2.722   1.575
   65EMI    N00 1227   0.655   2.576   1.624
   65EMI    C06 1228   0.678   2.232   1.715
   65EMI    H0F 1229   0.603   2.177   1.662
   65EMI    C0N 1230   0.813   2.160   1.703
   65EMI    H0O 1231   0.805   2.062   1.745
   65EMI    H0P 1232   0.841   2.152   1.600
   65EMI    H0Q 1233   0.888   2.215   1.756
   65EMI    N02 1234   0.689   2.367   1.658
   65EMI    H0E 1235   0.650   2.240   1.818
   66EMI    C01 1236   2.584   1.761   1.589
   66EMI    C04 1237   2.395   1.645   1.630
   66EMI    C03 1238   2.452   1.591   1.522
   66EMI    H07 1239   2.664   1.832   1.595
   66EMI    H09 1240   2.304   1.615   1.677
   66EMI    H08 1241   2.415   1.508   1.464
   66EMI    C05 1242   2.670   1.644   1.388
   66EMI    H0B 1243   2.768   1.673   1.420
   66EMI    H0C 1244   2.670   1.540   1.363
   66EMI    H0D 1245   2.641   1.702   1.303
   66EMI    N00 1246   2.574   1.668   1.497
   66EMI    C06 1247   2.460   1.844   1.786
   66EMI    H0F 1248   2.403   1.929   1.755
   66EMI    C0N 1249   2.384   1.768   1.895
   66EMI    H0O 1250   2.367   1.833   1.979
   66EMI    H0P 1251   2.289   1.735   1.857
   66EMI    H0Q 1252   2.441   1.683   1.927
   66EMI    N02 1253   2.483   1.755   1.671
   66EMI    H0E 1254   2.555   1.877   1.824
   67EMI    C01 1255   2.097   4.764   1.680
   67EMI    C04 1256   2.225   4.593   1.754
   67EMI    C03 1257   2.146   4.630   1.855
   67EMI    H07 1258   2.053   4.840   1.619
   67EMI    H09 1259   2.298   4.515   1.754
   67EMI    H08 1260   2.143   4.588   1.953
   67EMI    C05 1261   1.963   4.814   1.882
   67EMI    H0B 1262   1.886   4.849   1.815
   67EMI    H0C 1263   1.919   4.749   1.955
   67EMI    H0D 1264   2.008   4.898   1.931
   67EMI    N00 1265   2.064   4.741   1.805
   67EMI    C06 1266   2.252   4.678   1.508
   67EMI    H0F 1267   2.337   4.743   1.506
   67EMI    C0N 1268   2.296   4.535   1.476
   67EMI    H0O 1269   2.341   4.532   1.379
   67EMI    H0P 1270   2.368   4.502   1.549
   67EMI    H0Q 1271   2.211   4.470   1.478
   67EMI    N02 1272   2.191   4.682   1.642
   67EMI    H0E 1273   2.181   4.711   1.436
   68EMI    C01 1274   3.735   1.081   0.601
   68EMI    C04 1275   3.622   1.273   0.566
   68EMI    C03 1276   3.730   1.303   0.639
   68EMI    H07 1277   3.765   0.978   0.600
   68EMI    H09 1278   3.546   1.340   0.532
   68EMI    H08 1279   3.758   1.400   0.674
   68EMI    C05 1280   3.927   1.162   0.735
   68EMI    H0B 1281   3.983   1.080   0.694
   68EMI    H0C 1282   3.984   1.252   0.727
   68EMI    H0D 1283   3.905   1.142   0.838
   68EMI    N00 1284   3.801   1.177   0.660
   68EMI    C06 1285   3.530   1.049   0.468
   68EMI    H0F 1286   3.453   1.014   0.534
   68EMI    C0N 1287   3.466   1.137   0.358
   68EMI    H0O 1288   3.395   1.080   0.303
   68EMI    H0P 1289   3.418   1.221   0.404
   68EMI    H0Q 1290   3.543   1.172   0.292
   68EMI    N02 1291   3.628   1.128   0.543
   68EMI    H0E 1292   3.579   0.966   0.422
   69EMI    C01 1293   3.127   4.244   0.866
   69EMI    C04 1294   3.315   4.212   0.986
   69EMI    C03 1295   3.317   4.124   0.886
   69EMI    H07 1296   3.034   4.282   0.830
   69EMI    H09 1297   3.389   4.225   1.063
   69EMI    H08 1298   3.393   4.051   0.866
   69EMI    C05 1299   3.153   4.072   0.690
   69EMI    H0B 1300   3.095   4.136   0.627
   69EMI    H0C 1301   3.239   4.039   0.637
   69EMI    H0D 1302   3.094   3.988   0.719
   69EMI    N00 1303   3.194   4.147   0.810
   69EMI    C06 1304   3.147   4.399   1.058
   69EMI    H0F 1305   3.087   4.359   1.137
   69EMI    C0N 1306   3.269   4.471   1.117
   69EMI    H0O 1307   3.237   4.550   1.181
   69EMI    H0P 1308   3.328   4.401   1.174
   69EMI    H0Q 1309   3.329   4.511   1.038
   69EMI    N02 1310   3.191   4.289   0.970
   69EMI    H0E 1311   3.089   4.468   1.001
   70EMI    C01 1312   1.917   3.381   2.670
   70EMI    C04 1313   2.032   3.575   2.652
   70EMI    C03 1314   2.046   3.509   2.536
   70EMI    H07 1315   1.856   3.301   2.708
   70EMI    H09 1316   2.073   3.670   2.677
   70EMI    H08 1317   2.102   3.541   2.451
   70EMI    C05 1318   1.958   3.279   2.449
   70EMI    H0B 1319   1.864   3.229   2.460
   70EMI    H0C 1320   1.964   3.323   2.352
   70EMI    H0D 1321   2.037   3.208   2.460
   70EMI    N00 1322   1.971   3.384   2.551
   70EMI    C06 1323   1.905   3.521   2.874
   70EMI    H0F 1324   1.977   3.483   2.943
   70EMI    C0N 1325   1.893   3.674   2.890
   70EMI    H0O 1326   1.862   3.697   2.990
   70EMI    H0P 1327   1.988   3.719   2.871
   70EMI    H0Q 1328   1.821   3.712   2.821
   70EMI    N02 1329   1.948   3.490   2.737
   70EMI    H0E 1330   1.810   3.476   2.893
   71EMI    C01 1331   1.648   4.570   3.391
   71EMI    C04 1332   1.815   4.714   3.342
   71EMI    C03 1333   1.803   4.711   3.475
   71EMI    H07 1334   1.569   4.499   3.382
   71EMI    H09 1335   1.885   4.771   3.285
   71EMI    H08 1336   1.861   4.766   3.546
   71EMI    C05 1337   1.645   4.581   3.638
   71EMI    H0B 1338   1.608   4.481   3.637
   71EMI    H0C 1339   1.725   4.589   3.708
   71EMI    H0D 1340   1.567   4.648   3.666
   71EMI    N00 1341   1.694   4.617   3.504
   71EMI    C06 1342   1.690   4.591   3.148
   71EMI    H0F 1343   1.617   4.660   3.109
   71EMI    C0N 1344   1.821   4.606   3.069
   71EMI    H0O 1345   1.804   4.584   2.966
   71EMI    H0P 1346   1.858   4.706   3.079
   71EMI    H0Q 1347   1.894   4.537   3.108
   71EMI    N02 1348   1.714   4.621   3.290
   71EMI    H0E 1349   1.653   4.491   3.138
   72EMI    C01 1350   2.426   2.280   4.807
   72EMI    C04 1351   2.592   2.418   4.741
   72EMI    C03 1352   2.649   2.301   4.776
   72EMI    H07 1353   2.329   2.241   4.831
   72EMI    H09 1354   2.642   2.505   4.705
   72EMI    H08 1355   2.753   2.277   4.773
   72EMI    C05 1356   2.552   2.076   4.865
   72EMI    H0B 1357   2.464   2.021   4.840
   72EMI    H0C 1358   2.637   2.030   4.818
   72EMI    H0D 1359   2.565   2.075   4.971
   72EMI    N00 1360   2.538   2.214   4.818
   72EMI    C06 1361   2.346   2.503   4.737
   72EMI    H0F 1362   2.331   2.561   4.826
   72EMI    C0N 1363   2.392   2.595   4.623
   72EMI    H0O 1364   2.317   2.670   4.605
   72EMI    H0P 1365   2.484   2.643   4.650
   72EMI    H0Q 1366   2.407   2.537   4.534
   72EMI    N02 1367   2.448   2.401   4.762
   72EMI    H0E 1368   2.254   2.456   4.710
   73EMI    C01 1369   4.363   4.001   4.783
   73EMI    C04 1370   4.249   3.806   4.769
   73EMI    C03 1371   4.295   3.816   4.894
   73EMI    H07 1372   4.408   4.095   4.759
   73EMI    H09 1373   4.191   3.726   4.728
   73EMI    H08 1374   4.282   3.746   4.973
   73EMI    C05 1375   4.437   3.996   5.018
   73EMI    H0B 1376   4.436   4.104   5.015
   73EMI    H0C 1377   4.387   3.963   5.107
   73EMI    H0D 1378   4.538   3.962   5.020
   73EMI    N00 1379   4.369   3.943   4.900
   73EMI    C06 1380   4.267   3.960   4.558
   73EMI    H0F 1381   4.345   3.920   4.497
   73EMI    C0N 1382   4.133   3.898   4.516
   73EMI    H0O 1383   4.113   3.922   4.414
   73EMI    H0P 1384   4.137   3.792   4.528
   73EMI    H0Q 1385   4.054   3.938   4.578
   73EMI    N02 1386   4.294   3.927   4.699
   73EMI    H0E 1387   4.263   4.066   4.547
   74EMI    C01 1388   1.280   4.684   0.668
   74EMI    C04 1389   1.056   4.711   0.685
   74EMI    C03 1390   1.084   4.588   0.729
   74EMI    H07 1391   1.383   4.701   0.649
   74EMI    H09 1392   0.959   4.756   0.678
   74EMI    H08 1393   1.015   4.515   0.766
   74EMI    C05 1394   1.307   4.454   0.755
   74EMI    H0B 1395   1.405   4.483   0.786
   74EMI    H0C 1396   1.258   4.403   0.835
   74EMI    H0D 1397   1.315   4.389   0.670
   74EMI    N00 1398   1.230   4.573   0.717
   74EMI    C06 1399   1.203   4.906   0.591
   74EMI    H0F 1400   1.196   4.902   0.484
   74EMI    C0N 1401   1.093   4.999   0.646
   74EMI    H0O 1402   1.106   5.097   0.606
   74EMI    H0P 1403   0.997   4.962   0.618
   74EMI    H0Q 1404   1.100   5.002   0.753
   74EMI    N02 1405   1.184   4.771   0.646
   74EMI    H0E 1406   1.299   4.943   0.620
   75EMI    C01 1407   1.639   1.577   3.650
   75EMI    C04 1408   1.722   1.583   3.441
   75EMI    C03 1409   1.739   1.704   3.493
   75EMI    H07 1410   1.593   1.545   3.741
   75EMI    H09 1411   1.750   1.550   3.343
   75EMI    H08 1412   1.784   1.789   3.446
   75EMI    C05 1413   1.681   1.809   3.725
   75EMI    H0B 1414   1.687   1.770   3.825
   75EMI    H0C 1415   1.765   1.874   3.708
   75EMI    H0D 1416   1.590   1.864   3.713
   75EMI    N00 1417   1.684   1.698   3.629
   75EMI    C06 1418   1.618   1.361   3.532
   75EMI    H0F 1419   1.518   1.355   3.494
   75EMI    C0N 1420   1.714   1.290   3.436
   75EMI    H0O 1421   1.686   1.187   3.427
   75EMI    H0P 1422   1.710   1.337   3.340
   75EMI    H0Q 1423   1.814   1.296   3.474
   75EMI    N02 1424   1.657   1.503   3.545
   75EMI    H0E 1425   1.622   1.315   3.628
   76EMI    C01 1426   1.994   3.896   4.070
   76EMI    C04 1427   2.186   3.789   4.019
   76EMI    C03 1428   2.086   3.702   3.999
   76EMI    H07 1429   1.924   3.970   4.101
   76EMI    H09 1430   2.291   3.771   4.004
   76EMI    H08 1431   2.095   3.601   3.965
   76EMI    C05 1432   1.827   3.719   4.026
   76EMI    H0B 1433   1.758   3.797   4.005
   76EMI    H0C 1434   1.823   3.645   3.949
   76EMI    H0D 1435   1.802   3.674   4.120
   76EMI    N00 1436   1.963   3.774   4.033
   76EMI    C06 1437   2.195   4.037   4.100
   76EMI    H0F 1438   2.220   4.036   4.204
   76EMI    C0N 1439   2.323   4.048   4.016
   76EMI    H0O 1440   2.375   4.138   4.041
   76EMI    H0P 1441   2.386   3.964   4.036
   76EMI    H0Q 1442   2.298   4.049   3.912
   76EMI    N02 1443   2.124   3.913   4.065
   76EMI    H0E 1444   2.132   4.121   4.079
   77EMI    C01 1445   2.822   0.453   0.701
   77EMI    C04 1446   2.856   0.473   0.924
   77EMI    C03 1447   2.758   0.559   0.891
   77EMI    H07 1448   2.829   0.422   0.599
   77EMI    H09 1449   2.897   0.457   1.021
   77EMI    H08 1450   2.705   0.624   0.956
   77EMI    C05 1451   2.640   0.617   0.665
   77EMI    H0B 1452   2.610   0.557   0.583
   77EMI    H0C 1453   2.556   0.642   0.725
   77EMI    H0D 1454   2.685   0.707   0.629
   77EMI    N00 1455   2.738   0.543   0.746
   77EMI    C06 1456   3.000   0.304   0.786
   77EMI    H0F 1457   3.094   0.352   0.766
   77EMI    C0N 1458   3.010   0.224   0.917
   77EMI    H0O 1459   3.086   0.150   0.908
   77EMI    H0P 1460   3.035   0.291   0.998
   77EMI    H0Q 1461   2.916   0.177   0.938
   77EMI    N02 1462   2.895   0.407   0.799
   77EMI    H0E 1463   2.975   0.238   0.706
   78EMI    C01 1464   0.608   1.623   2.318
   78EMI    C04 1465   0.747   1.457   2.383
   78EMI    C03 1466   0.777   1.486   2.256
   78EMI    H07 1467   0.532   1.698   2.317
   78EMI    H09 1468   0.794   1.383   2.445
   78EMI    H08 1469   0.852   1.440   2.195
   78EMI    C05 1470   0.681   1.657   2.084
   78EMI    H0B 1471   0.648   1.759   2.095
   78EMI    H0C 1472   0.778   1.656   2.041
   78EMI    H0D 1473   0.612   1.605   2.021
   78EMI    N00 1474   0.685   1.593   2.216
   78EMI    C06 1475   0.572   1.552   2.552
   78EMI    H0F 1476   0.489   1.484   2.553
   78EMI    C0N 1477   0.673   1.511   2.661
   78EMI    H0O 1478   0.625   1.514   2.757
   78EMI    H0P 1479   0.707   1.411   2.642
   78EMI    H0Q 1480   0.756   1.578   2.660
   78EMI    N02 1481   0.638   1.547   2.421
   78EMI    H0E 1482   0.538   1.651   2.571
   79EMI    C01 1483   3.500   2.027   4.502
   79EMI    C04 1484   3.605   1.945   4.319
   79EMI    C03 1485   3.485   1.988   4.280
   79EMI    H07 1486   3.477   2.056   4.602
   79EMI    H09 1487   3.681   1.901   4.258
   79EMI    H08 1488   3.445   1.985   4.181
   79EMI    C05 1489   3.284   2.098   4.405
   79EMI    H0B 1490   3.279   2.171   4.483
   79EMI    H0C 1491   3.261   2.144   4.311
   79EMI    H0D 1492   3.213   2.021   4.425
   79EMI    N00 1493   3.419   2.040   4.400
   79EMI    C06 1494   3.726   1.941   4.550
   79EMI    H0F 1495   3.716   1.842   4.590
   79EMI    C0N 1496   3.857   1.950   4.469
   79EMI    H0O 1497   3.940   1.927   4.532
   79EMI    H0P 1498   3.853   1.879   4.389
   79EMI    H0Q 1499   3.868   2.048   4.429
   79EMI    N02 1500   3.612   1.971   4.463
   79EMI    H0E 1501   3.730   2.011   4.631
   80EMI    C01 1502   3.976   3.020   3.702
   80EMI    C04 1503   3.946   3.242   3.729
   80EMI    C03 1504   4.028   3.225   3.625
   80EMI    H07 1505   3.970   2.913   3.714
   80EMI    H09 1506   3.911   3.334   3.770
   80EMI    H08 1507   4.072   3.302   3.565
   80EMI    C05 1508   4.127   3.015   3.507
   80EMI    H0B 1509   4.085   2.919   3.484
   80EMI    H0C 1510   4.129   3.075   3.419
   80EMI    H0D 1511   4.227   3.001   3.544
   80EMI    N00 1512   4.045   3.080   3.610
   80EMI    C06 1513   3.827   3.075   3.891
   80EMI    H0F 1514   3.885   3.071   3.981
   80EMI    C0N 1515   3.719   3.185   3.906
   80EMI    H0O 1516   3.656   3.162   3.989
   80EMI    H0P 1517   3.767   3.279   3.923
   80EMI    H0Q 1518   3.661   3.190   3.816
   80EMI    N02 1519   3.914   3.107   3.777
   80EMI    H0E 1520   3.779   2.981   3.875
   81EMI    C01 1521   1.365   0.448   3.826
   81EMI    C04 1522   1.488   0.262   3.859
   81EMI    C03 1523   1.570   0.367   3.873
   81EMI    H07 1524   1.283   0.514   3.806
   81EMI    H09 1525   1.514   0.158   3.869
   81EMI    H08 1526   1.675   0.364   3.895
   81EMI    C05 1527   1.535   0.625   3.856
   81EMI    H0B 1528   1.455   0.688   3.888
   81EMI    H0C 1529   1.617   0.632   3.924
   81EMI    H0D 1530   1.567   0.655   3.758
   81EMI    N00 1531   1.488   0.486   3.851
   81EMI    C06 1532   1.234   0.239   3.806
   81EMI    H0F 1533   1.225   0.217   3.702
   81EMI    C0N 1534   1.240   0.108   3.886
   81EMI    H0O 1535   1.151   0.051   3.869
   81EMI    H0P 1536   1.325   0.051   3.855
   81EMI    H0Q 1537   1.249   0.131   3.991
   81EMI    N02 1538   1.356   0.317   3.829
   81EMI    H0E 1539   1.149   0.296   3.837
   82EMI    C01 1540   3.460   1.601   1.592
   82EMI    C04 1541   3.489   1.813   1.520
   82EMI    C03 1542   3.555   1.801   1.636
   82EMI    H07 1543   3.429   1.499   1.599
   82EMI    H09 1544   3.482   1.901   1.459
   82EMI    H08 1545   3.612   1.877   1.686
   82EMI    C05 1546   3.589   1.604   1.803
   82EMI    H0B 1547   3.605   1.499   1.788
   82EMI    H0C 1548   3.681   1.651   1.828
   82EMI    H0D 1549   3.519   1.618   1.883
   82EMI    N00 1550   3.534   1.663   1.680
   82EMI    C06 1551   3.346   1.648   1.378
   82EMI    H0F 1552   3.243   1.668   1.400
   82EMI    C0N 1553   3.390   1.732   1.257
   82EMI    H0O 1554   3.330   1.707   1.172
   82EMI    H0P 1555   3.378   1.836   1.279
   82EMI    H0Q 1556   3.493   1.712   1.235
   82EMI    N02 1557   3.428   1.682   1.494
   82EMI    H0E 1558   3.358   1.544   1.355
   83EMI    C01 1559   0.765   4.840   1.720
   83EMI    C04 1560   0.601   4.686   1.704
   83EMI    C03 1561   0.545   4.799   1.747
   83EMI    H07 1562   0.861   4.888   1.717
   83EMI    H09 1563   0.552   4.593   1.685
   83EMI    H08 1564   0.442   4.815   1.771
   83EMI    C05 1565   0.640   5.036   1.801
   83EMI    H0B 1566   0.713   5.097   1.753
   83EMI    H0C 1567   0.542   5.072   1.776
   83EMI    H0D 1568   0.653   5.042   1.907
   83EMI    N00 1569   0.654   4.897   1.757
   83EMI    C06 1570   0.846   4.620   1.640
   83EMI    H0F 1571   0.887   4.568   1.724
   83EMI    C0N 1572   0.781   4.518   1.544
   83EMI    H0O 1573   0.855   4.449   1.511
   83EMI    H0P 1574   0.703   4.465   1.596
   83EMI    H0Q 1575   0.739   4.569   1.460
   83EMI    N02 1576   0.744   4.715   1.687
   83EMI    H0E 1577   0.923   4.673   1.589
   84EMI    C01 1578   1.272   3.052   1.952
   84EMI    C04 1579   1.087   3.157   1.876
   84EMI    C03 1580   1.164   3.250   1.935
   84EMI    H07 1581   1.345   2.977   1.975
   84EMI    H09 1582   0.992   3.173   1.830
   84EMI    H08 1583   1.143   3.354   1.946
   84EMI    C05 1584   1.396   3.240   2.055
   84EMI    H0B 1585   1.485   3.185   2.033
   84EMI    H0C 1586   1.407   3.341   2.024
   84EMI    H0D 1587   1.377   3.236   2.160
   84EMI    N00 1588   1.283   3.179   1.983
   84EMI    C06 1589   1.114   2.900   1.838
   84EMI    H0F 1590   1.056   2.851   1.913
   84EMI    C0N 1591   1.026   2.922   1.713
   84EMI    H0O 1592   0.993   2.827   1.676
   84EMI    H0P 1593   0.942   2.982   1.739
   84EMI    H0Q 1594   1.084   2.971   1.637
   84EMI    N02 1595   1.160   3.030   1.889
   84EMI    H0E 1596   1.198   2.840   1.812
   85EMI    C01 1597   1.784   0.591   2.356
   85EMI    C04 1598   1.932   0.758   2.392
   85EMI    C03 1599   1.810   0.811   2.403
   85EMI    H07 1600   1.741   0.495   2.336
   85EMI    H09 1601   2.025   0.809   2.402
   85EMI    H08 1602   1.785   0.912   2.425
   85EMI    C05 1603   1.569   0.711   2.383
   85EMI    H0B 1604   1.527   0.618   2.415
   85EMI    H0C 1605   1.540   0.788   2.451
   85EMI    H0D 1606   1.533   0.734   2.285
   85EMI    N00 1607   1.716   0.700   2.380
   85EMI    C06 1608   2.019   0.517   2.340
   85EMI    H0F 1609   2.045   0.514   2.236
   85EMI    C0N 1610   2.143   0.557   2.422
   85EMI    H0O 1611   2.221   0.485   2.407
   85EMI    H0P 1612   2.177   0.654   2.391
   85EMI    H0Q 1613   2.118   0.560   2.526
   85EMI    N02 1614   1.912   0.616   2.361
   85EMI    H0E 1615   1.985   0.421   2.371
   86EMI    C01 1616   1.865   0.222   2.735
   86EMI    C04 1617   1.887   0.222   2.511
   86EMI    C03 1618   1.762   0.258   2.538
   86EMI    H07 1619   1.886   0.213   2.840
   86EMI    H09 1620   1.932   0.212   2.414
   86EMI    H08 1621   1.685   0.282   2.468
   86EMI    C05 1622   1.629   0.290   2.761
   86EMI    H0B 1623   1.657   0.332   2.855
   86EMI    H0C 1624   1.571   0.361   2.706
   86EMI    H0D 1625   1.572   0.202   2.777
   86EMI    N00 1626   1.750   0.257   2.684
   86EMI    C06 1627   2.092   0.158   2.660
   86EMI    H0F 1628   2.098   0.051   2.662
   86EMI    C0N 1629   2.178   0.212   2.544
   86EMI    H0O 1630   2.280   0.182   2.559
   86EMI    H0P 1631   2.142   0.172   2.451
   86EMI    H0Q 1632   2.173   0.319   2.542
   86EMI    N02 1633   1.952   0.199   2.640
   86EMI    H0E 1634   2.128   0.198   2.752
   87EMI    C01 1635   2.878   3.525   1.383
   87EMI    C04 1636   2.876   3.749   1.355
   87EMI    C03 1637   2.992   3.704   1.305
   87EMI    H07 1638   2.850   3.425   1.410
   87EMI    H09 1639   2.843   3.851   1.358
   87EMI    H08 1640   3.070   3.761   1.260
   87EMI    C05 1641   3.097   3.465   1.285
   87EMI    H0B 1642   3.054   3.370   1.262
   87EMI    H0C 1643   3.147   3.504   1.199
   87EMI    H0D 1644   3.166   3.454   1.366
   87EMI    N00 1645   2.990   3.558   1.325
   87EMI    C06 1646   2.672   3.633   1.469
   87EMI    H0F 1647   2.684   3.645   1.575
   87EMI    C0N 1648   2.589   3.749   1.413
   87EMI    H0O 1649   2.493   3.750   1.460
   87EMI    H0P 1650   2.639   3.842   1.433
   87EMI    H0Q 1651   2.578   3.737   1.307
   87EMI    N02 1652   2.805   3.631   1.405
   87EMI    H0E 1653   2.622   3.540   1.449
   88EMI    C01 1654   4.168   4.264   3.459
   88EMI    C04 1655   4.291   4.266   3.270
   88EMI    C03 1656   4.370   4.220   3.368
   88EMI    H07 1657   4.088   4.274   3.529
   88EMI    H09 1658   4.318   4.279   3.167
   88EMI    H08 1659   4.473   4.190   3.359
   88EMI    C05 1660   4.333   4.178   3.623
   88EMI    H0B 1661   4.250   4.138   3.677
   88EMI    H0C 1662   4.408   4.103   3.613
   88EMI    H0D 1663   4.373   4.262   3.675
   88EMI    N00 1664   4.288   4.220   3.489
   88EMI    C06 1665   4.043   4.345   3.263
   88EMI    H0F 1666   4.043   4.452   3.266
   88EMI    C0N 1667   4.044   4.298   3.116
   88EMI    H0O 1668   3.958   4.335   3.065
   88EMI    H0P 1669   4.133   4.334   3.068
   88EMI    H0Q 1670   4.044   4.191   3.113
   88EMI    N02 1671   4.161   4.293   3.332
   88EMI    H0E 1672   3.954   4.308   3.311
   89EMI    C01 1673   0.730   0.603   0.182
   89EMI    C04 1674   0.652   0.396   0.224
   89EMI    C03 1675   0.786   0.389   0.224
   89EMI    H07 1676   0.736   0.708   0.161
   89EMI    H09 1677   0.584   0.315   0.241
   89EMI    H08 1678   0.846   0.302   0.241
   89EMI    C05 1679   0.974   0.565   0.187
   89EMI    H0B 1680   0.984   0.668   0.218
   89EMI    H0C 1681   1.034   0.503   0.250
   89EMI    H0D 1682   1.007   0.556   0.086
   89EMI    N00 1683   0.833   0.525   0.196
   89EMI    C06 1684   0.483   0.591   0.187
   89EMI    H0F 1685   0.449   0.585   0.085
   89EMI    C0N 1686   0.388   0.511   0.278
   89EMI    H0O 1687   0.290   0.551   0.271
   89EMI    H0P 1688   0.387   0.409   0.247
   89EMI    H0Q 1689   0.422   0.517   0.379
   89EMI    N02 1690   0.619   0.536   0.196
   89EMI    H0E 1691   0.484   0.694   0.218
   90EMI    C01 1692   3.720   2.306   4.006
   90EMI    C04 1693   3.727   2.348   4.228
   90EMI    C03 1694   3.673   2.226   4.212
   90EMI    H07 1695   3.730   2.316   3.900
   90EMI    H09 1696   3.745   2.399   4.320
   90EMI    H08 1697   3.639   2.160   4.289
   90EMI    C05 1698   3.618   2.081   4.002
   90EMI    H0B 1699   3.671   2.065   3.910
   90EMI    H0C 1700   3.632   1.997   4.067
   90EMI    H0D 1701   3.514   2.093   3.981
   90EMI    N00 1702   3.670   2.202   4.067
   90EMI    C06 1703   3.817   2.527   4.061
   90EMI    H0F 1704   3.740   2.600   4.048
   90EMI    C0N 1705   3.910   2.570   4.176
   90EMI    H0O 1706   3.954   2.665   4.152
   90EMI    H0P 1707   3.853   2.579   4.266
   90EMI    H0Q 1708   3.987   2.497   4.189
   90EMI    N02 1709   3.756   2.397   4.093
   90EMI    H0E 1710   3.873   2.519   3.971
   91EMI    C01 1711   2.797   0.313   1.405
   91EMI    C04 1712   2.975   0.449   1.380
   91EMI    C03 1713   3.022   0.324   1.391
   91EMI    H07 1714   2.697   0.276   1.414
   91EMI    H09 1715   3.033   0.538   1.367
   91EMI    H08 1716   3.124   0.293   1.389
   91EMI    C05 1717   2.906   0.092   1.422
   91EMI    H0B 1718   2.817   0.050   1.381
   91EMI    H0C 1719   2.991   0.052   1.371
   91EMI    H0D 1720   2.912   0.067   1.526
   91EMI    N00 1721   2.904   0.238   1.407
   91EMI    C06 1722   2.735   0.551   1.382
   91EMI    H0F 1723   2.717   0.589   1.481
   91EMI    C0N 1724   2.794   0.662   1.294
   91EMI    H0O 1725   2.725   0.744   1.289
   91EMI    H0P 1726   2.887   0.696   1.336
   91EMI    H0Q 1727   2.811   0.624   1.195
   91EMI    N02 1728   2.829   0.438   1.389
   91EMI    H0E 1729   2.642   0.517   1.340
   92EMI    C01 1730   1.630   1.021   0.195
   92EMI    C04 1731   1.591   1.141   0.382
   92EMI    C03 1732   1.573   1.012   0.413
   92EMI    H07 1733   1.654   0.994   0.095
   92EMI    H09 1734   1.581   1.225   0.448
   92EMI    H08 1735   1.545   0.972   0.509
   92EMI    C05 1736   1.591   0.791   0.276
   92EMI    H0B 1737   1.660   0.759   0.201
   92EMI    H0C 1738   1.615   0.745   0.369
   92EMI    H0D 1739   1.492   0.763   0.247
   92EMI    N00 1740   1.599   0.937   0.290
   92EMI    C06 1741   1.658   1.265   0.162
   92EMI    H0F 1742   1.568   1.302   0.118
   92EMI    C0N 1743   1.718   1.372   0.255
   92EMI    H0O 1744   1.740   1.460   0.198
   92EMI    H0P 1745   1.647   1.396   0.332
   92EMI    H0Q 1746   1.808   1.335   0.299
   92EMI    N02 1747   1.628   1.144   0.241
   92EMI    H0E 1748   1.729   1.241   0.086
   93EMI    C01 1749   1.601   1.454   2.202
   93EMI    C04 1750   1.477   1.407   2.019
   93EMI    C03 1751   1.422   1.342   2.122
   93EMI    H07 1752   1.676   1.494   2.267
   93EMI    H09 1753   1.444   1.407   1.917
   93EMI    H08 1754   1.335   1.280   2.120
   93EMI    C05 1755   1.481   1.326   2.376
   93EMI    H0B 1756   1.516   1.399   2.446
   93EMI    H0C 1757   1.376   1.310   2.391
   93EMI    H0D 1758   1.534   1.234   2.390
   93EMI    N00 1759   1.504   1.375   2.239
   93EMI    C06 1760   1.684   1.564   1.996
   93EMI    H0F 1761   1.765   1.505   1.959
   93EMI    C0N 1762   1.609   1.628   1.879
   93EMI    H0O 1763   1.676   1.690   1.823
   93EMI    H0P 1764   1.570   1.551   1.815
   93EMI    H0Q 1765   1.528   1.687   1.916
   93EMI    N02 1766   1.593   1.479   2.073
   93EMI    H0E 1767   1.723   1.641   2.060
   94EMI    C01 1768   2.166   0.387   2.860
   94EMI    C04 1769   2.217   0.224   3.007
   94EMI    C03 1770   2.095   0.268   3.038
   94EMI    H07 1771   2.171   0.458   2.780
   94EMI    H09 1772   2.273   0.147   3.057
   94EMI    H08 1773   2.032   0.232   3.117
   94EMI    C05 1774   1.939   0.450   2.935
   94EMI    H0B 1775   1.919   0.479   2.834
   94EMI    H0C 1776   1.858   0.390   2.971
   94EMI    H0D 1777   1.948   0.538   2.996
   94EMI    N00 1778   2.064   0.373   2.941
   94EMI    C06 1779   2.390   0.291   2.824
   94EMI    H0F 1780   2.462   0.357   2.869
   94EMI    C0N 1781   2.441   0.146   2.834
   94EMI    H0O 1782   2.535   0.137   2.785
   94EMI    H0P 1783   2.452   0.120   2.938
   94EMI    H0Q 1784   2.369   0.080   2.789
   94EMI    N02 1785   2.261   0.304   2.892
   94EMI    H0E 1786   2.379   0.317   2.720
   95EMI    C01 1787   1.121   1.306   3.060
   95EMI    C04 1788   1.270   1.241   2.903
   95EMI    C03 1789   1.276   1.375   2.910
   95EMI    H07 1790   1.046   1.305   3.135
   95EMI    H09 1791   1.328   1.178   2.839
   95EMI    H08 1792   1.339   1.440   2.853
   95EMI    C05 1793   1.150   1.551   3.055
   95EMI    H0B 1794   1.119   1.551   3.157
   95EMI    H0C 1795   1.238   1.611   3.044
   95EMI    H0D 1796   1.071   1.592   2.994
   95EMI    N00 1797   1.179   1.414   3.012
   95EMI    C06 1798   1.129   1.061   3.028
   95EMI    H0F 1799   1.048   1.034   2.964
   95EMI    C0N 1800   1.248   0.967   3.002
   95EMI    H0O 1801   1.218   0.866   3.022
   95EMI    H0P 1802   1.279   0.975   2.900
   95EMI    H0Q 1803   1.329   0.993   3.066
   95EMI    N02 1804   1.170   1.200   3.001
   95EMI    H0E 1805   1.098   1.052   3.130
   96EMI    C01 1806   1.282   4.574   4.798
   96EMI    C04 1807   1.264   4.455   4.607
   96EMI    C03 1808   1.388   4.436   4.654
   96EMI    H07 1809   1.260   4.638   4.881
   96EMI    H09 1810   1.222   4.413   4.518
   96EMI    H08 1811   1.465   4.377   4.610
   96EMI    C05 1812   1.515   4.525   4.864
   96EMI    H0B 1813   1.484   4.541   4.965
   96EMI    H0C 1814   1.572   4.435   4.857
   96EMI    H0D 1815   1.575   4.608   4.832
   96EMI    N00 1816   1.396   4.515   4.777
   96EMI    C06 1817   1.059   4.593   4.692
   96EMI    H0F 1818   1.057   4.684   4.637
   96EMI    C0N 1819   0.973   4.487   4.620
   96EMI    H0O 1820   0.872   4.522   4.613
   96EMI    H0P 1821   1.012   4.470   4.522
   96EMI    H0Q 1822   0.975   4.396   4.675
   96EMI    N02 1823   1.197   4.544   4.702
   96EMI    H0E 1824   1.020   4.610   4.790
   97EMI    C01 1825   0.590   0.551   1.722
   97EMI    C04 1826   0.683   0.607   1.919
   97EMI    C03 1827   0.783   0.580   1.835
   97EMI    H07 1828   0.519   0.530   1.644
   97EMI    H09 1829   0.692   0.638   2.022
   97EMI    H08 1830   0.888   0.583   1.856
   97EMI    C05 1831   0.791   0.505   1.585
   97EMI    H0B 1832   0.733   0.534   1.500
   97EMI    H0C 1833   0.886   0.554   1.582
   97EMI    H0D 1834   0.805   0.399   1.584
   97EMI    N00 1835   0.720   0.544   1.708
   97EMI    C06 1836   0.423   0.608   1.895
   97EMI    H0F 1837   0.387   0.516   1.936
   97EMI    C0N 1838   0.425   0.716   2.004
   97EMI    H0O 1839   0.325   0.730   2.042
   97EMI    H0P 1840   0.489   0.685   2.084
   97EMI    H0Q 1841   0.460   0.808   1.963
   97EMI    N02 1842   0.559   0.588   1.843
   97EMI    H0E 1843   0.359   0.638   1.815
   98EMI    C01 1844   0.661   4.431   3.119
   98EMI    C04 1845   0.545   4.290   3.252
   98EMI    C03 1846   0.474   4.403   3.244
   98EMI    H07 1847   0.735   4.473   3.055
   98EMI    H09 1848   0.520   4.202   3.307
   98EMI    H08 1849   0.381   4.424   3.290
   98EMI    C05 1850   0.512   4.629   3.119
   98EMI    H0B 1851   0.552   4.651   3.022
   98EMI    H0C 1852   0.406   4.636   3.116
   98EMI    H0D 1853   0.552   4.698   3.190
   98EMI    N00 1854   0.552   4.492   3.157
   98EMI    C06 1855   0.773   4.213   3.150
   98EMI    H0F 1856   0.848   4.226   3.226
   98EMI    C0N 1857   0.715   4.070   3.159
   98EMI    H0O 1858   0.794   3.999   3.144
   98EMI    H0P 1859   0.671   4.055   3.255
   98EMI    H0Q 1860   0.641   4.058   3.083
   98EMI    N02 1861   0.665   4.311   3.171
   98EMI    H0E 1862   0.817   4.228   3.054
   99EMI    C01 1863   2.343   2.338   4.285
   99EMI    C04 1864   2.193   2.251   4.429
   99EMI    C03 1865   2.124   2.297   4.324
   99EMI    H07 1866   2.434   2.369   4.239
   99EMI    H09 1867   2.153   2.204   4.516
   99EMI    H08 1868   2.018   2.295   4.310
   99EMI    C05 1869   2.195   2.416   4.103
   99EMI    H0B 1870   2.278   2.400   4.036
   99EMI    H0C 1871   2.107   2.372   4.061
   99EMI    H0D 1872   2.180   2.521   4.116
   99EMI    N00 1873   2.224   2.353   4.232
   99EMI    C06 1874   2.447   2.245   4.489
   99EMI    H0F 1875   2.466   2.327   4.556
   99EMI    C0N 1876   2.413   2.119   4.571
   99EMI    H0O 1877   2.495   2.095   4.635
   99EMI    H0P 1878   2.326   2.138   4.630
   99EMI    H0Q 1879   2.394   2.037   4.504
   99EMI    N02 1880   2.334   2.279   4.401
   99EMI    H0E 1881   2.534   2.226   4.430
  100EMI    C01 1882   2.690   0.291   4.467
  100EMI    C04 1883   2.819   0.474   4.435
  100EMI    C03 1884   2.897   0.366   4.418
  100EMI    H07 1885   2.606   0.228   4.488
  100EMI    H09 1886   2.848   0.576   4.426
  100EMI    H08 1887   3.001   0.366   4.393
  100EMI    C05 1888   2.853   0.109   4.431
  100EMI    H0B 1889   2.770   0.049   4.400
  100EMI    H0C 1890   2.933   0.100   4.361
  100EMI    H0D 1891   2.886   0.077   4.528
  100EMI    N00 1892   2.811   0.250   4.440
  100EMI    C06 1893   2.566   0.504   4.493
  100EMI    H0F 1894   2.560   0.525   4.598
  100EMI    C0N 1895   2.576   0.636   4.415
  100EMI    H0O 1896   2.489   0.696   4.434
  100EMI    H0P 1897   2.663   0.689   4.445
  100EMI    H0Q 1898   2.582   0.615   4.310
  100EMI    N02 1899   2.685   0.422   4.467
  100EMI    H0E 1900   2.479   0.451   4.463
  101EMI    C01 1901   1.604   4.429   1.380
  101EMI    C04 1902   1.635   4.428   1.603
  101EMI    C03 1903   1.685   4.543   1.557
  101EMI    H07 1904   1.577   4.400   1.280
  101EMI    H09 1905   1.633   4.395   1.705
  101EMI    H08 1906   1.730   4.621   1.614
  101EMI    C05 1907   1.702   4.647   1.318
  101EMI    H0B 1908   1.634   4.648   1.235
  101EMI    H0C 1909   1.698   4.742   1.368
  101EMI    H0D 1910   1.801   4.629   1.283
  101EMI    N00 1911   1.663   4.541   1.412
  101EMI    C06 1912   1.520   4.223   1.488
  101EMI    H0F 1913   1.594   4.147   1.477
  101EMI    C0N 1914   1.448   4.204   1.623
  101EMI    H0O 1915   1.401   4.107   1.625
  101EMI    H0P 1916   1.519   4.210   1.703
  101EMI    H0Q 1917   1.373   4.279   1.635
  101EMI    N02 1918   1.584   4.356   1.486
  101EMI    H0E 1919   1.449   4.217   1.409
  102EMI    C01 1920   3.272   3.423   2.310
  102EMI    C04 1921   3.275   3.276   2.481
  102EMI    C03 1922   3.397   3.275   2.426
  102EMI    H07 1923   3.240   3.496   2.238
  102EMI    H09 1924   3.242   3.217   2.564
  102EMI    H08 1925   3.482   3.217   2.456
  102EMI    C05 1926   3.504   3.405   2.226
  102EMI    H0B 1927   3.493   3.506   2.192
  102EMI    H0C 1928   3.596   3.394   2.278
  102EMI    H0D 1929   3.502   3.339   2.141
  102EMI    N00 1930   3.392   3.372   2.315
  102EMI    C06 1931   3.055   3.406   2.428
  102EMI    H0F 1932   2.993   3.340   2.371
  102EMI    C0N 1933   3.023   3.390   2.577
  102EMI    H0O 1934   2.921   3.414   2.595
  102EMI    H0P 1935   3.041   3.288   2.607
  102EMI    H0Q 1936   3.086   3.455   2.634
  102EMI    N02 1937   3.196   3.372   2.403
  102EMI    H0E 1938   3.037   3.507   2.398
  103EMI    C01 1939   3.829   1.497   2.475
  103EMI    C04 1940   3.992   1.645   2.523
  103EMI    C03 1941   3.926   1.622   2.636
  103EMI    H07 1942   3.765   1.429   2.423
  103EMI    H09 1943   4.076   1.711   2.510
  103EMI    H08 1944   3.945   1.665   2.732
  103EMI    C05 1945   3.722   1.470   2.696
  103EMI    H0B 1946   3.694   1.371   2.665
  103EMI    H0C 1947   3.764   1.466   2.794
  103EMI    H0D 1948   3.635   1.532   2.698
  103EMI    N00 1949   3.821   1.525   2.602
  103EMI    C06 1950   3.967   1.556   2.279
  103EMI    H0F 1951   3.914   1.630   2.223
  103EMI    C0N 1952   4.119   1.581   2.266
  103EMI    H0O 1953   4.147   1.576   2.164
  103EMI    H0P 1954   4.142   1.678   2.305
  103EMI    H0Q 1955   4.172   1.507   2.322
  103EMI    N02 1956   3.928   1.563   2.420
  103EMI    H0E 1957   3.944   1.459   2.240
  104EMI    C01 1958   3.720   4.212   0.910
  104EMI    C04 1959   3.725   4.377   0.757
  104EMI    C03 1960   3.789   4.422   0.865
  104EMI    H07 1961   3.702   4.119   0.960
  104EMI    H09 1962   3.708   4.430   0.665
  104EMI    H08 1963   3.834   4.518   0.878
  104EMI    C05 1964   3.842   4.317   1.098
  104EMI    H0B 1965   3.872   4.218   1.127
  104EMI    H0C 1966   3.928   4.381   1.098
  104EMI    H0D 1967   3.769   4.354   1.167
  104EMI    N00 1968   3.784   4.313   0.963
  104EMI    C06 1969   3.607   4.151   0.699
  104EMI    H0F 1970   3.502   4.165   0.714
  104EMI    C0N 1971   3.643   4.183   0.553
  104EMI    H0O 1972   3.589   4.118   0.488
  104EMI    H0P 1973   3.618   4.285   0.531
  104EMI    H0Q 1974   3.748   4.169   0.538
  104EMI    N02 1975   3.681   4.241   0.789
  104EMI    H0E 1976   3.632   4.050   0.721
  105EMI    C01 1977   4.045   0.833   1.152
  105EMI    C04 1978   3.820   0.841   1.134
  105EMI    C03 1979   3.859   0.959   1.182
  105EMI    H07 1980   4.146   0.800   1.149
  105EMI    H09 1981   3.719   0.810   1.113
  105EMI    H08 1982   3.797   1.043   1.207
  105EMI    C05 1983   4.093   1.059   1.241
  105EMI    H0B 1984   4.189   1.051   1.193
  105EMI    H0C 1985   4.050   1.154   1.218
  105EMI    H0D 1986   4.106   1.050   1.347
  105EMI    N00 1987   4.005   0.952   1.192
  105EMI    C06 1988   3.947   0.624   1.064
  105EMI    H0F 1989   3.940   0.555   1.146
  105EMI    C0N 1990   3.831   0.600   0.967
  105EMI    H0O 1991   3.835   0.500   0.930
  105EMI    H0P 1992   3.738   0.616   1.018
  105EMI    H0Q 1993   3.838   0.669   0.885
  105EMI    N02 1994   3.942   0.762   1.115
  105EMI    H0E 1995   4.040   0.609   1.013
  106EMI    C01 1996   3.547   0.870   3.804
  106EMI    C04 1997   3.506   0.652   3.761
  106EMI    C03 1998   3.397   0.702   3.820
  106EMI    H07 1999   3.594   0.966   3.810
  106EMI    H09 2000   3.521   0.552   3.727
  106EMI    H08 2001   3.307   0.649   3.844
  106EMI    C05 2002   3.335   0.938   3.911
  106EMI    H0B 2003   3.354   1.037   3.874
  106EMI    H0C 2004   3.234   0.911   3.890
  106EMI    H0D 2005   3.351   0.937   4.017
  106EMI    N00 2006   3.426   0.843   3.847
  106EMI    C06 2007   3.736   0.756   3.693
  106EMI    H0F 2008   3.807   0.730   3.769
  106EMI    C0N 2009   3.738   0.650   3.581
  106EMI    H0O 2010   3.836   0.645   3.539
  106EMI    H0P 2011   3.712   0.555   3.623
  106EMI    H0Q 2012   3.667   0.676   3.505
  106EMI    N02 2013   3.601   0.763   3.751
  106EMI    H0E 2014   3.762   0.852   3.651
  107EMI    C01 2015   2.430   2.780   4.004
  107EMI    C04 2016   2.594   2.933   3.976
  107EMI    C03 2017   2.653   2.813   3.984
  107EMI    H07 2018   2.335   2.734   4.016
  107EMI    H09 2019   2.642   3.028   3.962
  107EMI    H08 2020   2.757   2.792   3.978
  107EMI    C05 2021   2.561   2.571   4.016
  107EMI    H0B 2022   2.475   2.521   3.976
  107EMI    H0C 2023   2.648   2.540   3.961
  107EMI    H0D 2024   2.573   2.546   4.119
  107EMI    N00 2025   2.544   2.716   4.002
  107EMI    C06 2026   2.345   3.012   3.987
  107EMI    H0F 2027   2.327   3.047   4.086
  107EMI    C0N 2028   2.391   3.129   3.898
  107EMI    H0O 2029   2.314   3.204   3.896
  107EMI    H0P 2030   2.481   3.171   3.938
  107EMI    H0Q 2031   2.408   3.094   3.799
  107EMI    N02 2032   2.450   2.909   3.989
  107EMI    H0E 2033   2.255   2.970   3.947
  108EMI    C01 2034   2.577   4.339   3.931
  108EMI    C04 2035   2.699   4.472   4.066
  108EMI    C03 2036   2.755   4.351   4.070
  108EMI    H07 2037   2.503   4.303   3.863
  108EMI    H09 2038   2.732   4.560   4.119
  108EMI    H08 2039   2.841   4.321   4.127
  108EMI    C05 2040   2.697   4.124   3.955
  108EMI    H0B 2041   2.662   4.101   3.856
  108EMI    H0C 2042   2.801   4.103   3.962
  108EMI    H0D 2043   2.643   4.065   4.026
  108EMI    N00 2044   2.673   4.266   3.982
  108EMI    C06 2045   2.493   4.571   3.940
  108EMI    H0F 2046   2.412   4.574   4.010
  108EMI    C0N 2047   2.569   4.705   3.946
  108EMI    H0O 2048   2.502   4.785   3.920
  108EMI    H0P 2049   2.607   4.721   4.045
  108EMI    H0Q 2050   2.651   4.703   3.877
  108EMI    N02 2051   2.585   4.462   3.976
  108EMI    H0E 2052   2.456   4.556   3.841
  109EMI    C01 2053   3.006   3.568   1.606
  109EMI    C04 2054   3.199   3.678   1.568
  109EMI    C03 2055   3.225   3.547   1.556
  109EMI    H07 2056   2.904   3.545   1.627
  109EMI    H09 2057   3.269   3.759   1.557
  109EMI    H08 2058   3.320   3.503   1.533
  109EMI    C05 2059   3.078   3.333   1.578
  109EMI    H0B 2060   2.978   3.311   1.548
  109EMI    H0C 2061   3.147   3.289   1.509
  109EMI    H0D 2062   3.095   3.293   1.676
  109EMI    N00 2063   3.098   3.478   1.581
  109EMI    C06 2064   2.983   3.813   1.623
  109EMI    H0F 2065   2.987   3.839   1.727
  109EMI    C0N 2066   3.046   3.926   1.540
  109EMI    H0O 2067   2.992   4.017   1.557
  109EMI    H0P 2068   3.148   3.939   1.570
  109EMI    H0Q 2069   3.042   3.901   1.436
  109EMI    N02 2070   3.057   3.688   1.601
  109EMI    H0E 2071   2.881   3.800   1.593
  110EMI    C01 2072   4.861   4.353   2.401
  110EMI    C04 2073   4.727   4.529   2.443
  110EMI    C03 2074   4.849   4.578   2.421
  110EMI    H07 2075   4.898   4.254   2.386
  110EMI    H09 2076   4.638   4.585   2.466
  110EMI    H08 2077   4.879   4.680   2.423
  110EMI    C05 2078   5.078   4.466   2.365
  110EMI    H0B 2079   5.104   4.383   2.302
  110EMI    H0C 2080   5.102   4.558   2.315
  110EMI    H0D 2081   5.134   4.459   2.456
  110EMI    N00 2082   4.934   4.461   2.394
  110EMI    C06 2083   4.627   4.288   2.445
  110EMI    H0F 2084   4.621   4.257   2.547
  110EMI    C0N 2085   4.495   4.355   2.403
  110EMI    H0O 2086   4.414   4.285   2.415
  110EMI    H0P 2087   4.477   4.440   2.465
  110EMI    H0Q 2088   4.501   4.385   2.301
  110EMI    N02 2089   4.737   4.384   2.430
  110EMI    H0E 2090   4.645   4.202   2.383
  111EMI    C01 2091   3.361   2.469   1.943
  111EMI    C04 2092   3.533   2.562   2.056
  111EMI    C03 2093   3.579   2.528   1.935
  111EMI    H07 2094   3.265   2.431   1.916
  111EMI    H09 2095   3.587   2.609   2.135
  111EMI    H08 2096   3.678   2.542   1.898
  111EMI    C05 2097   3.469   2.415   1.727
  111EMI    H0B 2098   3.373   2.426   1.682
  111EMI    H0C 2099   3.542   2.470   1.670
  111EMI    H0D 2100   3.496   2.312   1.729
  111EMI    N00 2101   3.466   2.468   1.864
  111EMI    C06 2102   3.299   2.541   2.171
  111EMI    H0F 2103   3.303   2.454   2.234
  111EMI    C0N 2104   3.341   2.665   2.252
  111EMI    H0O 2105   3.273   2.678   2.334
  111EMI    H0P 2106   3.440   2.652   2.289
  111EMI    H0Q 2107   3.337   2.751   2.189
  111EMI    N02 2108   3.391   2.523   2.058
  111EMI    H0E 2109   3.200   2.554   2.134
  112EMI    C01 2110   2.527   0.379   0.924
  112EMI    C04 2111   2.505   0.155   0.933
  112EMI    C03 2112   2.441   0.205   1.040
  112EMI    H07 2113   2.554   0.478   0.894
  112EMI    H09 2114   2.514   0.051   0.907
  112EMI    H08 2115   2.390   0.150   1.116
  112EMI    C05 2116   2.404   0.448   1.128
  112EMI    H0B 2117   2.383   0.540   1.077
  112EMI    H0C 2118   2.314   0.410   1.171
  112EMI    H0D 2119   2.476   0.465   1.205
  112EMI    N00 2120   2.457   0.350   1.031
  112EMI    C06 2121   2.637   0.263   0.736
  112EMI    H0F 2122   2.741   0.255   0.759
  112EMI    C0N 2123   2.593   0.140   0.654
  112EMI    H0O 2124   2.650   0.135   0.564
  112EMI    H0P 2125   2.610   0.051   0.712
  112EMI    H0Q 2126   2.489   0.148   0.631
  112EMI    N02 2127   2.559   0.270   0.860
  112EMI    H0E 2128   2.620   0.352   0.679
  113EMI    C01 2129   1.190   0.435   1.159
  113EMI    C04 2130   1.009   0.564   1.199
  113EMI    C03 2131   0.972   0.436   1.216
  113EMI    H07 2132   1.289   0.402   1.135
  113EMI    H09 2133   0.948   0.651   1.209
  113EMI    H08 2134   0.875   0.401   1.244
  113EMI    C05 2135   1.098   0.209   1.197
  113EMI    H0B 2136   1.197   0.179   1.226
  113EMI    H0C 2137   1.028   0.173   1.270
  113EMI    H0D 2138   1.074   0.167   1.102
  113EMI    N00 2139   1.091   0.355   1.190
  113EMI    C06 2140   1.236   0.676   1.133
  113EMI    H0F 2141   1.231   0.698   1.028
  113EMI    C0N 2142   1.185   0.797   1.213
  113EMI    H0O 2143   1.247   0.882   1.192
  113EMI    H0P 2144   1.084   0.819   1.186
  113EMI    H0Q 2145   1.190   0.775   1.318
  113EMI    N02 2146   1.151   0.559   1.162
  113EMI    H0E 2147   1.337   0.655   1.160
  114EMI    C01 2148   3.727   0.359   4.591
  114EMI    C04 2149   3.721   0.184   4.735
  114EMI    C03 2150   3.846   0.233   4.737
  114EMI    H07 2151   3.699   0.433   4.520
  114EMI    H09 2152   3.683   0.102   4.791
  114EMI    H08 2153   3.928   0.197   4.795
  114EMI    C05 2154   3.962   0.431   4.612
  114EMI    H0B 2155   3.929   0.529   4.586
  114EMI    H0C 2156   4.027   0.436   4.698
  114EMI    H0D 2157   4.016   0.389   4.530
  114EMI    N00 2158   3.846   0.346   4.643
  114EMI    C06 2159   3.505   0.251   4.605
  114EMI    H0F 2160   3.496   0.185   4.522
  114EMI    C0N 2161   3.428   0.193   4.725
  114EMI    H0O 2162   3.325   0.181   4.700
  114EMI    H0P 2163   3.470   0.098   4.751
  114EMI    H0Q 2164   3.437   0.259   4.809
  114EMI    N02 2165   3.646   0.268   4.640
  114EMI    H0E 2166   3.463   0.347   4.579
  115EMI    C01 2167   1.803   3.165   2.934
  115EMI    C04 2168   1.670   2.984   2.906
  115EMI    C03 2169   1.757   2.955   3.004
  115EMI    H07 2170   1.847   3.261   2.924
  115EMI    H09 2171   1.593   2.921   2.868
  115EMI    H08 2172   1.763   2.863   3.059
  115EMI    C05 2173   1.952   3.087   3.116
  115EMI    H0B 2174   1.962   3.190   3.144
  115EMI    H0C 2175   1.931   3.028   3.203
  115EMI    H0D 2176   2.043   3.054   3.071
  115EMI    N00 2177   1.842   3.073   3.020
  115EMI    C06 2178   1.633   3.195   2.758
  115EMI    H0F 2179   1.681   3.177   2.664
  115EMI    C0N 2180   1.486   3.150   2.751
  115EMI    H0O 2181   1.436   3.205   2.674
  115EMI    H0P 2182   1.482   3.045   2.729
  115EMI    H0Q 2183   1.439   3.169   2.845
  115EMI    N02 2184   1.703   3.120   2.863
  115EMI    H0E 2185   1.637   3.300   2.780
  116EMI    C01 2186   2.909   1.580   4.053
  116EMI    C04 2187   3.052   1.677   4.198
  116EMI    C03 2188   3.113   1.570   4.148
  116EMI    H07 2189   2.822   1.559   3.994
  116EMI    H09 2190   3.091   1.746   4.270
  116EMI    H08 2191   3.212   1.535   4.172
  116EMI    C05 2192   3.042   1.388   3.975
  116EMI    H0B 2193   2.987   1.393   3.884
  116EMI    H0C 2194   3.147   1.379   3.954
  116EMI    H0D 2195   3.010   1.302   4.031
  116EMI    N00 2196   3.018   1.509   4.055
  116EMI    C06 2197   2.816   1.783   4.160
  116EMI    H0F 2198   2.754   1.752   4.241
  116EMI    C0N 2199   2.883   1.917   4.196
  116EMI    H0O 2200   2.808   1.991   4.214
  116EMI    H0P 2201   2.943   1.904   4.285
  116EMI    H0Q 2202   2.946   1.949   4.116
  116EMI    N02 2203   2.920   1.682   4.135
  116EMI    H0E 2204   2.757   1.796   4.072
  117EMI    C01 2205   2.066   4.380   0.719
  117EMI    C04 2206   1.846   4.429   0.697
  117EMI    C03 2207   1.856   4.297   0.720
  117EMI    H07 2208   2.172   4.389   0.724
  117EMI    H09 2209   1.757   4.485   0.682
  117EMI    H08 2210   1.775   4.227   0.727
  117EMI    C05 2211   2.058   4.137   0.759
  117EMI    H0B 2212   2.149   4.148   0.814
  117EMI    H0C 2213   1.989   4.078   0.816
  117EMI    H0D 2214   2.078   4.088   0.666
  117EMI    N00 2215   1.999   4.269   0.733
  117EMI    C06 2216   2.023   4.620   0.675
  117EMI    H0F 2217   2.038   4.637   0.571
  117EMI    C0N 2218   1.911   4.713   0.727
  117EMI    H0O 2219   1.940   4.815   0.711
  117EMI    H0P 2220   1.821   4.693   0.673
  117EMI    H0Q 2221   1.896   4.696   0.831
  117EMI    N02 2222   1.984   4.480   0.697
  117EMI    H0E 2223   2.113   4.640   0.729
  118EMI    C01 2224   1.009   3.188   4.004
  118EMI    C04 2225   0.929   3.047   4.161
  118EMI    C03 2226   1.011   3.133   4.223
  118EMI    H07 2227   1.028   3.237   3.910
  118EMI    H09 2228   0.875   2.966   4.205
  118EMI    H08 2229   1.034   3.135   4.327
  118EMI    C05 2230   1.154   3.335   4.140
  118EMI    H0B 2231   1.135   3.411   4.068
  118EMI    H0C 2232   1.140   3.374   4.238
  118EMI    H0D 2233   1.254   3.300   4.129
  118EMI    N00 2234   1.061   3.223   4.118
  118EMI    C06 2235   0.855   3.018   3.912
  118EMI    H0F 2236   0.914   2.940   3.870
  118EMI    C0N 2237   0.725   2.958   3.970
  118EMI    H0O 2238   0.670   2.909   3.892
  118EMI    H0P 2239   0.750   2.887   4.046
  118EMI    H0Q 2240   0.666   3.036   4.012
  118EMI    N02 2241   0.930   3.085   4.019
  118EMI    H0E 2242   0.830   3.089   3.836
  119EMI    C01 2243   4.513   0.319   3.622
  119EMI    C04 2244   4.404   0.488   3.520
  119EMI    C03 2245   4.526   0.533   3.553
  119EMI    H07 2246   4.538   0.224   3.664
  119EMI    H09 2247   4.326   0.543   3.471
  119EMI    H08 2248   4.565   0.631   3.534
  119EMI    C05 2249   4.731   0.424   3.671
  119EMI    H0B 2250   4.774   0.327   3.665
  119EMI    H0C 2251   4.790   0.493   3.614
  119EMI    H0D 2252   4.729   0.456   3.773
  119EMI    N00 2253   4.594   0.421   3.618
  119EMI    C06 2254   4.284   0.258   3.552
  119EMI    H0F 2255   4.221   0.267   3.638
  119EMI    C0N 2256   4.204   0.296   3.426
  119EMI    H0O 2257   4.121   0.230   3.416
  119EMI    H0P 2258   4.169   0.397   3.434
  119EMI    H0Q 2259   4.267   0.287   3.340
  119EMI    N02 2260   4.399   0.349   3.566
  119EMI    H0E 2261   4.319   0.158   3.544
  120EMI    C01 2262   2.235   1.504   3.973
  120EMI    C04 2263   2.200   1.285   3.935
  120EMI    C03 2264   2.329   1.309   3.910
  120EMI    H07 2265   2.221   1.607   3.999
  120EMI    H09 2266   2.149   1.191   3.927
  120EMI    H08 2267   2.402   1.238   3.878
  120EMI    C05 2268   2.476   1.524   3.921
  120EMI    H0B 2269   2.479   1.605   3.991
  120EMI    H0C 2270   2.558   1.457   3.941
  120EMI    H0D 2271   2.485   1.562   3.822
  120EMI    N00 2272   2.349   1.451   3.936
  120EMI    C06 2273   2.001   1.435   4.013
  120EMI    H0F 2274   1.945   1.461   3.926
  120EMI    C0N 2275   1.944   1.307   4.076
  120EMI    H0O 2276   1.842   1.323   4.103
  120EMI    H0P 2277   1.949   1.227   4.004
  120EMI    H0Q 2278   2.000   1.281   4.163
  120EMI    N02 2279   2.142   1.413   3.976
  120EMI    H0E 2280   1.996   1.515   4.085
  121EMI    C01 2281   3.289   0.701   1.954
  121EMI    C04 2282   3.417   0.563   2.079
  121EMI    C03 2283   3.402   0.677   2.148
  121EMI    H07 2284   3.229   0.741   1.875
  121EMI    H09 2285   3.471   0.476   2.110
  121EMI    H08 2286   3.443   0.700   2.244
  121EMI    C05 2287   3.277   0.901   2.099
  121EMI    H0B 2288   3.182   0.921   2.053
  121EMI    H0C 2289   3.268   0.910   2.205
  121EMI    H0D 2290   3.349   0.971   2.063
  121EMI    N00 2291   3.319   0.764   2.064
  121EMI    C06 2292   3.330   0.482   1.847
  121EMI    H0F 2293   3.410   0.494   1.777
  121EMI    C0N 2294   3.336   0.340   1.907
  121EMI    H0O 2295   3.327   0.268   1.829
  121EMI    H0P 2296   3.430   0.327   1.957
  121EMI    H0Q 2297   3.256   0.327   1.978
  121EMI    N02 2298   3.342   0.581   1.954
  121EMI    H0E 2299   3.236   0.495   1.797
  122EMI    C01 2300   3.415   3.595   4.235
  122EMI    C04 2301   3.537   3.662   4.412
  122EMI    C03 2302   3.539   3.762   4.323
  122EMI    H07 2303   3.354   3.538   4.169
  122EMI    H09 2304   3.585   3.660   4.508
  122EMI    H08 2305   3.589   3.856   4.333
  122EMI    C05 2306   3.434   3.793   4.087
  122EMI    H0B 2307   3.338   3.765   4.047
  122EMI    H0C 2308   3.434   3.897   4.109
  122EMI    H0D 2309   3.510   3.772   4.015
  122EMI    N00 2310   3.459   3.716   4.209
  122EMI    C06 2311   3.425   3.426   4.414
  122EMI    H0F 2312   3.500   3.355   4.387
  122EMI    C0N 2313   3.422   3.441   4.567
  122EMI    H0O 2314   3.400   3.347   4.612
  122EMI    H0P 2315   3.518   3.476   4.602
  122EMI    H0Q 2316   3.347   3.512   4.595
  122EMI    N02 2317   3.456   3.556   4.352
  122EMI    H0E 2318   3.330   3.392   4.380
  123EMI    C01 2319   1.063   2.338   1.975
  123EMI    C04 2320   1.158   2.540   1.940
  123EMI    C03 2321   1.217   2.453   1.856
  123EMI    H07 2322   1.002   2.259   2.013
  123EMI    H09 2323   1.178   2.644   1.949
  123EMI    H08 2324   1.294   2.475   1.786
  123EMI    C05 2325   1.187   2.198   1.812
  123EMI    H0B 2326   1.100   2.136   1.808
  123EMI    H0C 2327   1.220   2.219   1.713
  123EMI    H0D 2328   1.264   2.147   1.866
  123EMI    N00 2329   1.154   2.323   1.881
  123EMI    C06 2330   0.969   2.515   2.119
  123EMI    H0F 2331   1.017   2.508   2.214
  123EMI    C0N 2332   0.938   2.663   2.089
  123EMI    H0O 2333   0.872   2.701   2.164
  123EMI    H0P 2334   1.029   2.719   2.087
  123EMI    H0Q 2335   0.890   2.670   1.993
  123EMI    N02 2336   1.059   2.462   2.015
  123EMI    H0E 2337   0.879   2.459   2.120
  124EMI    C01 2338   0.511   1.248   3.260
  124EMI    C04 2339   0.553   1.067   3.131
  124EMI    C03 2340   0.446   1.129   3.079
  124EMI    H07 2341   0.516   1.322   3.337
  124EMI    H09 2342   0.600   0.978   3.095
  124EMI    H08 2343   0.391   1.099   2.993
  124EMI    C05 2344   0.313   1.343   3.146
  124EMI    H0B 2345   0.345   1.439   3.183
  124EMI    H0C 2346   0.290   1.351   3.042
  124EMI    H0D 2347   0.226   1.312   3.200
  124EMI    N00 2348   0.421   1.245   3.165
  124EMI    C06 2349   0.705   1.116   3.338
  124EMI    H0F 2350   0.672   1.053   3.418
  124EMI    C0N 2351   0.816   1.045   3.259
  124EMI    H0O 2352   0.898   1.023   3.324
  124EMI    H0P 2353   0.777   0.953   3.218
  124EMI    H0Q 2354   0.849   1.108   3.179
  124EMI    N02 2355   0.592   1.146   3.248
  124EMI    H0E 2356   0.744   1.208   3.378
  125EMI    C01 2357   1.057   3.929   0.908
  125EMI    C04 2358   0.936   3.772   0.799
  125EMI    C03 2359   1.038   3.709   0.859
  125EMI    H07 2360   1.092   4.022   0.948
  125EMI    H09 2361   0.860   3.728   0.739
  125EMI    H08 2362   1.059   3.604   0.856
  125EMI    C05 2363   1.235   3.790   1.009
  125EMI    H0B 2364   1.241   3.864   1.086
  125EMI    H0C 2365   1.232   3.692   1.052
  125EMI    H0D 2366   1.322   3.798   0.946
  125EMI    N00 2367   1.114   3.813   0.929
  125EMI    C06 2368   0.862   4.022   0.789
  125EMI    H0F 2369   0.897   4.062   0.696
  125EMI    C0N 2370   0.719   3.967   0.770
  125EMI    H0O 2371   0.655   4.046   0.738
  125EMI    H0P 2372   0.721   3.890   0.696
  125EMI    H0Q 2373   0.684   3.927   0.863
  125EMI    N02 2374   0.951   3.914   0.833
  125EMI    H0E 2375   0.861   4.100   0.863
  126EMI    C01 2376   2.644   4.479   1.813
  126EMI    C04 2377   2.794   4.562   1.666
  126EMI    C03 2378   2.842   4.444   1.709
  126EMI    H07 2379   2.558   4.467   1.876
  126EMI    H09 2380   2.839   4.628   1.595
  126EMI    H08 2381   2.933   4.398   1.680
  126EMI    C05 2382   2.753   4.266   1.878
  126EMI    H0B 2383   2.654   4.228   1.897
  126EMI    H0C 2384   2.808   4.195   1.819
  126EMI    H0D 2385   2.803   4.283   1.971
  126EMI    N00 2386   2.743   4.393   1.804
  126EMI    C06 2387   2.577   4.697   1.719
  126EMI    H0F 2388   2.603   4.772   1.790
  126EMI    C0N 2389   2.592   4.754   1.577
  126EMI    H0O 2390   2.527   4.838   1.565
  126EMI    H0P 2391   2.693   4.784   1.561
  126EMI    H0Q 2392   2.565   4.678   1.505
  126EMI    N02 2393   2.666   4.581   1.735
  126EMI    H0E 2394   2.476   4.667   1.735
  127EMI    C01 2395   1.108   2.486   1.331
  127EMI    C04 2396   1.110   2.301   1.201
  127EMI    C03 2397   1.088   2.405   1.121
  127EMI    H07 2398   1.112   2.552   1.415
  127EMI    H09 2399   1.117   2.198   1.173
  127EMI    H08 2400   1.074   2.403   1.015
  127EMI    C05 2401   1.067   2.662   1.162
  127EMI    H0B 2402   1.120   2.729   1.227
  127EMI    H0C 2403   1.103   2.673   1.062
  127EMI    H0D 2404   0.962   2.686   1.165
  127EMI    N00 2405   1.087   2.524   1.207
  127EMI    C06 2406   1.147   2.278   1.459
  127EMI    H0F 2407   1.053   2.249   1.502
  127EMI    C0N 2408   1.229   2.153   1.424
  127EMI    H0O 2409   1.247   2.096   1.513
  127EMI    H0P 2410   1.174   2.093   1.354
  127EMI    H0Q 2411   1.322   2.182   1.381
  127EMI    N02 2412   1.122   2.356   1.337
  127EMI    H0E 2413   1.201   2.338   1.529
  128EMI    C01 2414   2.830   1.131   2.408
  128EMI    C04 2415   3.036   1.046   2.447
  128EMI    C03 2416   3.035   1.171   2.495
  128EMI    H07 2417   2.729   1.142   2.376
  128EMI    H09 2418   3.117   0.977   2.450
  128EMI    H08 2419   3.116   1.222   2.542
  128EMI    C05 2420   2.853   1.358   2.502
  128EMI    H0B 2421   2.748   1.355   2.521
  128EMI    H0C 2422   2.904   1.393   2.590
  128EMI    H0D 2423   2.873   1.425   2.421
  128EMI    N00 2424   2.901   1.224   2.468
  128EMI    C06 2425   2.856   0.898   2.328
  128EMI    H0F 2426   2.876   0.902   2.223
  128EMI    C0N 2427   2.930   0.779   2.390
  128EMI    H0O 2428   2.897   0.688   2.344
  128EMI    H0P 2429   3.035   0.790   2.375
  128EMI    H0Q 2430   2.910   0.775   2.495
  128EMI    N02 2431   2.902   1.023   2.392
  128EMI    H0E 2432   2.751   0.887   2.344
  129EMI    C01 2433   2.273   3.308   2.577
  129EMI    C04 2434   2.328   3.207   2.771
  129EMI    C03 2435   2.340   3.116   2.674
  129EMI    H07 2436   2.243   3.381   2.505
  129EMI    H09 2437   2.347   3.192   2.875
  129EMI    H08 2438   2.370   3.013   2.685
  129EMI    C05 2439   2.302   3.123   2.416
  129EMI    H0B 2440   2.324   3.198   2.342
  129EMI    H0C 2441   2.376   3.046   2.411
  129EMI    H0D 2442   2.206   3.081   2.397
  129EMI    N00 2443   2.304   3.184   2.550
  129EMI    C06 2444   2.258   3.458   2.773
  129EMI    H0F 2445   2.156   3.462   2.803
  129EMI    C0N 2446   2.349   3.470   2.897
  129EMI    H0O 2447   2.329   3.563   2.946
  129EMI    H0P 2448   2.328   3.390   2.964
  129EMI    H0Q 2449   2.451   3.466   2.867
  129EMI    N02 2450   2.285   3.330   2.705
  129EMI    H0E 2451   2.279   3.539   2.706
  130EMI    C01 2452   0.915   3.035   2.100
  130EMI    C04 2453   0.862   3.080   2.315
  130EMI    C03 2454   0.758   3.015   2.262
  130EMI    H07 2455   0.966   3.028   2.007
  130EMI    H09 2456   0.871   3.117   2.416
  130EMI    H08 2457   0.667   2.989   2.311
  130EMI    C05 2458   0.711   2.916   2.025
  130EMI    H0B 2459   0.774   2.865   1.955
  130EMI    H0C 2460   0.649   2.846   2.076
  130EMI    H0D 2461   0.650   2.987   1.973
  130EMI    N00 2462   0.795   2.987   2.123
  130EMI    C06 2463   1.093   3.156   2.220
  130EMI    H0F 2464   1.085   3.260   2.195
  130EMI    C0N 2465   1.144   3.143   2.365
  130EMI    H0O 2466   1.240   3.190   2.374
  130EMI    H0P 2467   1.075   3.191   2.432
  130EMI    H0Q 2468   1.153   3.040   2.391
  130EMI    N02 2469   0.962   3.092   2.208
  130EMI    H0E 2470   1.163   3.109   2.154
  131EMI    C01 2471   1.865   0.997   1.574
  131EMI    C04 2472   1.913   1.204   1.495
  131EMI    C03 2473   1.845   1.139   1.400
  131EMI    H07 2474   1.858   0.911   1.637
  131EMI    H09 2475   1.951   1.303   1.491
  131EMI    H08 2476   1.818   1.177   1.303
  131EMI    C05 2477   1.742   0.900   1.383
  131EMI    H0B 2478   1.690   0.839   1.455
  131EMI    H0C 2479   1.671   0.944   1.316
  131EMI    H0D 2480   1.811   0.840   1.328
  131EMI    N00 2481   1.815   1.006   1.453
  131EMI    C06 2482   1.992   1.136   1.735
  131EMI    H0F 2483   2.095   1.108   1.728
  131EMI    C0N 2484   1.982   1.286   1.768
  131EMI    H0O 2485   2.031   1.306   1.861
  131EMI    H0P 2486   2.029   1.343   1.690
  131EMI    H0Q 2487   1.879   1.314   1.775
  131EMI    N02 2488   1.925   1.109   1.607
  131EMI    H0E 2489   1.945   1.079   1.812
  132EMI    C01 2490   3.419   3.004   2.106
  132EMI    C04 2491   3.355   3.210   2.041
  132EMI    C03 2492   3.285   3.180   2.151
  132EMI    H07 2493   3.469   2.909   2.110
  132EMI    H09 2494   3.349   3.301   1.984
  132EMI    H08 2495   3.213   3.241   2.200
  132EMI    C05 2496   3.280   2.971   2.307
  132EMI    H0B 2497   3.358   2.907   2.343
  132EMI    H0C 2498   3.251   3.039   2.384
  132EMI    H0D 2499   3.195   2.912   2.278
  132EMI    N00 2500   3.329   3.046   2.191
  132EMI    C06 2501   3.535   3.083   1.902
  132EMI    H0F 2502   3.485   3.039   1.818
  132EMI    C0N 2503   3.588   3.222   1.864
  132EMI    H0O 2504   3.657   3.213   1.782
  132EMI    H0P 2505   3.506   3.285   1.834
  132EMI    H0Q 2506   3.638   3.266   1.948
  132EMI    N02 2507   3.441   3.095   2.014
  132EMI    H0E 2508   3.617   3.020   1.931
  133EMI    C01 2509   2.156   0.763   1.768
  133EMI    C04 2510   2.326   0.680   1.890
  133EMI    C03 2511   2.239   0.580   1.869
  133EMI    H07 2512   2.093   0.830   1.712
  133EMI    H09 2513   2.417   0.675   1.945
  133EMI    H08 2514   2.248   0.479   1.903
  133EMI    C05 2515   2.012   0.564   1.741
  133EMI    H0B 2516   1.979   0.607   1.649
  133EMI    H0C 2517   2.038   0.461   1.725
  133EMI    H0D 2518   1.934   0.570   1.814
  133EMI    N00 2519   2.130   0.637   1.789
  133EMI    C06 2520   2.329   0.931   1.821
  133EMI    H0F 2521   2.295   0.988   1.905
  133EMI    C0N 2522   2.483   0.919   1.827
  133EMI    H0O 2523   2.526   1.016   1.825
  133EMI    H0P 2524   2.510   0.869   1.918
  133EMI    H0Q 2525   2.517   0.862   1.743
  133EMI    N02 2526   2.269   0.797   1.824
  133EMI    H0E 2527   2.301   0.981   1.730
  134EMI    C01 2528   1.262   4.996   1.001
  134EMI    C04 2529   1.308   4.791   0.919
  134EMI    C03 2530   1.175   4.801   0.926
  134EMI    H07 2531   1.271   5.095   1.040
  134EMI    H09 2532   1.365   4.707   0.884
  134EMI    H08 2533   1.103   4.727   0.899
  134EMI    C05 2534   1.014   4.991   1.005
  134EMI    H0B 2535   1.018   5.097   0.993
  134EMI    H0C 2536   0.944   4.949   0.936
  134EMI    H0D 2537   0.984   4.967   1.105
  134EMI    N00 2538   1.148   4.935   0.980
  134EMI    C06 2539   1.504   4.953   0.978
  134EMI    H0F 2540   1.541   4.925   1.074
  134EMI    C0N 2541   1.583   4.879   0.869
  134EMI    H0O 2542   1.687   4.905   0.876
  134EMI    H0P 2543   1.571   4.773   0.882
  134EMI    H0Q 2544   1.546   4.908   0.772
  134EMI    N02 2545   1.362   4.918   0.968
  134EMI    H0E 2546   1.516   5.059   0.965
  135EMI    C01 2547   0.526   1.498   4.085
  135EMI    C04 2548   0.349   1.548   4.215
  135EMI    C03 2549   0.454   1.613   4.266
  135EMI    H07 2550   0.588   1.457   4.008
  135EMI    H09 2551   0.248   1.550   4.252
  135EMI    H08 2552   0.456   1.676   4.352
  135EMI    C05 2553   0.706   1.627   4.197
  135EMI    H0B 2554   0.754   1.633   4.101
  135EMI    H0C 2555   0.704   1.724   4.242
  135EMI    H0D 2556   0.760   1.559   4.260
  135EMI    N00 2557   0.568   1.579   4.180
  135EMI    C06 2558   0.318   1.389   4.010
  135EMI    H0F 2559   0.318   1.289   4.048
  135EMI    C0N 2560   0.173   1.442   4.007
  135EMI    H0O 2561   0.114   1.379   3.943
  135EMI    H0P 2562   0.132   1.440   4.106
  135EMI    H0Q 2563   0.172   1.542   3.970
  135EMI    N02 2564   0.398   1.475   4.098
  135EMI    H0E 2565   0.358   1.391   3.912
  136EMI    C01 2566   1.023   4.875   4.056
  136EMI    C04 2567   1.168   5.022   4.147
  136EMI    C03 2568   1.180   5.032   4.014
  136EMI    H07 2569   0.948   4.800   4.044
  136EMI    H09 2570   1.222   5.078   4.221
  136EMI    H08 2571   1.246   5.097   3.960
  136EMI    C05 2572   1.063   4.911   3.815
  136EMI    H0B 2573   0.962   4.880   3.799
  136EMI    H0C 2574   1.082   5.000   3.760
  136EMI    H0D 2575   1.129   4.833   3.781
  136EMI    N00 2576   1.085   4.936   3.958
  136EMI    C06 2577   1.018   4.876   4.303
  136EMI    H0F 2578   1.078   4.794   4.337
  136EMI    C0N 2579   1.029   4.992   4.404
  136EMI    H0O 2580   0.995   4.960   4.500
  136EMI    H0P 2581   1.132   5.023   4.411
  136EMI    H0Q 2582   0.969   5.074   4.370
  136EMI    N02 2583   1.065   4.920   4.171
  136EMI    H0E 2584   0.916   4.845   4.296
  137EMI    C01 2585   3.801   1.458   0.401
  137EMI    C04 2586   3.670   1.639   0.428
  137EMI    C03 2587   3.776   1.655   0.508
  137EMI    H07 2588   3.840   1.364   0.368
  137EMI    H09 2589   3.588   1.707   0.416
  137EMI    H08 2590   3.796   1.738   0.573
  137EMI    C05 2591   3.987   1.509   0.556
  137EMI    H0B 2592   4.049   1.450   0.492
  137EMI    H0C 2593   4.036   1.602   0.577
  137EMI    H0D 2594   3.969   1.456   0.647
  137EMI    N00 2595   3.859   1.536   0.488
  137EMI    C06 2596   3.597   1.451   0.262
  137EMI    H0F 2597   3.525   1.390   0.313
  137EMI    C0N 2598   3.523   1.563   0.186
  137EMI    H0O 2599   3.456   1.520   0.115
  137EMI    H0P 2600   3.468   1.623   0.255
  137EMI    H0Q 2601   3.595   1.624   0.135
  137EMI    N02 2602   3.689   1.511   0.360
  137EMI    H0E 2603   3.652   1.391   0.193
  138EMI    C01 2604   4.160   3.002   2.468
  138EMI    C04 2605   4.243   3.210   2.439
  138EMI    C03 2606   4.279   3.137   2.333
  138EMI    H07 2607   4.110   2.917   2.509
  138EMI    H09 2608   4.265   3.313   2.457
  138EMI    H08 2609   4.337   3.170   2.249
  138EMI    C05 2610   4.239   2.889   2.263
  138EMI    H0B 2611   4.154   2.825   2.272
  138EMI    H0C 2612   4.247   2.924   2.163
  138EMI    H0D 2613   4.327   2.834   2.289
  138EMI    N00 2614   4.224   3.003   2.354
  138EMI    C06 2615   4.105   3.156   2.654
  138EMI    H0F 2616   4.175   3.137   2.733
  138EMI    C0N 2617   4.066   3.305   2.653
  138EMI    H0O 2618   4.022   3.331   2.746
  138EMI    H0P 2619   4.154   3.364   2.637
  138EMI    H0Q 2620   3.996   3.323   2.574
  138EMI    N02 2621   4.166   3.120   2.525
  138EMI    H0E 2622   4.017   3.096   2.670
  139EMI    C01 2623   1.594   0.592   1.397
  139EMI    C04 2624   1.592   0.654   1.614
  139EMI    C03 2625   1.698   0.574   1.597
  139EMI    H07 2626   1.569   0.580   1.294
  139EMI    H09 2627   1.561   0.701   1.705
  139EMI    H08 2628   1.769   0.545   1.671
  139EMI    C05 2629   1.795   0.448   1.390
  139EMI    H0B 2630   1.805   0.476   1.287
  139EMI    H0C 2631   1.890   0.458   1.439
  139EMI    H0D 2632   1.762   0.346   1.396
  139EMI    N00 2633   1.697   0.535   1.455
  139EMI    C06 2634   1.405   0.740   1.453
  139EMI    H0F 2635   1.319   0.679   1.469
  139EMI    C0N 2636   1.398   0.863   1.547
  139EMI    H0O 2637   1.309   0.919   1.525
  139EMI    H0P 2638   1.395   0.830   1.648
  139EMI    H0Q 2639   1.484   0.924   1.531
  139EMI    N02 2640   1.526   0.663   1.483
  139EMI    H0E 2641   1.408   0.773   1.351
  140EMI    C01 2642   2.402   4.140   1.952
  140EMI    C04 2643   2.318   3.962   1.841
  140EMI    C03 2644   2.226   4.059   1.837
  140EMI    H07 2645   2.467   4.204   2.009
  140EMI    H09 2646   2.310   3.865   1.798
  140EMI    H08 2647   2.130   4.055   1.790
  140EMI    C05 2648   2.218   4.303   1.931
  140EMI    H0B 2649   2.292   4.380   1.938
  140EMI    H0C 2650   2.152   4.324   1.849
  140EMI    H0D 2651   2.161   4.300   2.022
  140EMI    N00 2652   2.283   4.173   1.910
  140EMI    C06 2653   2.556   3.946   1.947
  140EMI    H0F 2654   2.546   3.894   2.040
  140EMI    C0N 2655   2.586   3.845   1.835
  140EMI    H0O 2656   2.677   3.793   1.857
  140EMI    H0P 2657   2.505   3.774   1.828
  140EMI    H0Q 2658   2.596   3.897   1.742
  140EMI    N02 2659   2.431   4.017   1.917
  140EMI    H0E 2660   2.636   4.017   1.954
  141EMI    C01 2661   2.148   3.957   3.726
  141EMI    C04 2662   2.075   4.163   3.671
  141EMI    C03 2663   2.205   4.159   3.642
  141EMI    H07 2664   2.152   3.856   3.760
  141EMI    H09 2665   2.009   4.246   3.657
  141EMI    H08 2666   2.265   4.237   3.601
  141EMI    C05 2667   2.387   3.973   3.665
  141EMI    H0B 2668   2.385   3.867   3.648
  141EMI    H0C 2669   2.435   4.021   3.583
  141EMI    H0D 2670   2.442   3.993   3.755
  141EMI    N00 2671   2.250   4.024   3.679
  141EMI    C06 2672   1.907   3.989   3.770
  141EMI    H0F 2673   1.896   4.011   3.874
  141EMI    C0N 2674   1.800   4.064   3.690
  141EMI    H0O 2675   1.703   4.034   3.723
  141EMI    H0P 2676   1.811   4.170   3.705
  141EMI    H0Q 2677   1.811   4.042   3.585
  141EMI    N02 2678   2.041   4.031   3.725
  141EMI    H0E 2679   1.896   3.884   3.755
  142EMI    C01 2680   1.083   4.342   0.177
  142EMI    C04 2681   0.887   4.253   0.243
  142EMI    C03 2682   0.977   4.155   0.243
  142EMI    H07 2683   1.159   4.411   0.144
  142EMI    H09 2684   0.783   4.246   0.269
  142EMI    H08 2685   0.960   4.052   0.269
  142EMI    C05 2686   1.231   4.144   0.185
  142EMI    H0B 2687   1.312   4.212   0.204
  142EMI    H0C 2688   1.235   4.063   0.255
  142EMI    H0D 2689   1.239   4.106   0.085
  142EMI    N00 2690   1.103   4.215   0.200
  142EMI    C06 2691   0.900   4.508   0.184
  142EMI    H0F 2692   0.863   4.519   0.084
  142EMI    C0N 2693   0.784   4.525   0.284
  142EMI    H0O 2694   0.741   4.622   0.273
  142EMI    H0P 2695   0.709   4.450   0.265
  142EMI    H0Q 2696   0.821   4.513   0.384
  142EMI    N02 2697   0.958   4.374   0.199
  142EMI    H0E 2698   0.975   4.582   0.203
  143EMI    C01 2699   0.362   4.656   4.037
  143EMI    C04 2700   0.521   4.758   4.160
  143EMI    C03 2701   0.403   4.786   4.217
  143EMI    H07 2702   0.313   4.599   3.961
  143EMI    H09 2703   0.618   4.790   4.193
  143EMI    H08 2704   0.386   4.845   4.305
  143EMI    C05 2705   0.157   4.721   4.159
  143EMI    H0B 2706   0.114   4.630   4.123
  143EMI    H0C 2707   0.139   4.731   4.264
  143EMI    H0D 2708   0.114   4.804   4.107
  143EMI    N00 2709   0.302   4.719   4.135
  143EMI    C06 2710   0.591   4.619   3.950
  143EMI    H0F 2711   0.607   4.688   3.871
  143EMI    C0N 2712   0.724   4.595   4.025
  143EMI    H0O 2713   0.796   4.555   3.957
  143EMI    H0P 2714   0.760   4.688   4.065
  143EMI    H0Q 2715   0.708   4.526   4.105
  143EMI    N02 2716   0.492   4.674   4.044
  143EMI    H0E 2717   0.555   4.527   3.911
  144EMI    C01 2718   2.128   1.845   3.773
  144EMI    C04 2719   2.030   2.018   3.879
  144EMI    C03 2720   1.940   1.919   3.873
  144EMI    H07 2721   2.199   1.783   3.722
  144EMI    H09 2722   2.016   2.114   3.923
  144EMI    H08 2723   1.840   1.920   3.910
  144EMI    C05 2724   1.946   1.678   3.773
  144EMI    H0B 2725   2.022   1.603   3.772
  144EMI    H0C 2726   1.873   1.654   3.848
  144EMI    H0D 2727   1.898   1.682   3.677
  144EMI    N00 2728   2.006   1.808   3.803
  144EMI    C06 2729   2.276   2.041   3.797
  144EMI    H0F 2730   2.274   2.095   3.704
  144EMI    C0N 2731   2.293   2.140   3.913
  144EMI    H0O 2732   2.385   2.194   3.901
  144EMI    H0P 2733   2.211   2.209   3.914
  144EMI    H0Q 2734   2.296   2.087   4.006
  144EMI    N02 2735   2.150   1.967   3.814
  144EMI    H0E 2736   2.358   1.972   3.796
  145EMI    C01 2737   2.883   4.403   1.313
  145EMI    C04 2738   2.663   4.389   1.263
  145EMI    C03 2739   2.698   4.518   1.255
  145EMI    H07 2740   2.983   4.378   1.340
  145EMI    H09 2741   2.567   4.347   1.245
  145EMI    H08 2742   2.634   4.601   1.230
  145EMI    C05 2743   2.922   4.646   1.292
  145EMI    H0B 2744   3.024   4.622   1.267
  145EMI    H0C 2745   2.884   4.718   1.222
  145EMI    H0D 2746   2.919   4.688   1.391
  145EMI    N00 2747   2.841   4.524   1.288
  145EMI    C06 2748   2.796   4.172   1.321
  145EMI    H0F 2749   2.775   4.149   1.423
  145EMI    C0N 2750   2.694   4.100   1.231
  145EMI    H0O 2751   2.702   3.994   1.246
  145EMI    H0P 2752   2.595   4.132   1.255
  145EMI    H0Q 2753   2.715   4.123   1.128
  145EMI    N02 2754   2.785   4.317   1.301
  145EMI    H0E 2755   2.895   4.140   1.296
  146EMI    C01 2756   2.166   2.102   1.400
  146EMI    C04 2757   2.034   2.272   1.469
  146EMI    C03 2758   2.055   2.192   1.575
  146EMI    H07 2759   2.225   2.037   1.339
  146EMI    H09 2760   1.976   2.361   1.467
  146EMI    H08 2761   2.017   2.205   1.674
  146EMI    C05 2762   2.190   1.971   1.608
  146EMI    H0B 2763   2.284   1.938   1.570
  146EMI    H0C 2764   2.201   2.003   1.709
  146EMI    H0D 2765   2.120   1.890   1.604
  146EMI    N00 2766   2.140   2.083   1.527
  146EMI    C06 2767   2.113   2.263   1.220
  146EMI    H0F 2768   2.032   2.223   1.163
  146EMI    C0N 2769   2.101   2.417   1.224
  146EMI    H0O 2770   2.105   2.455   1.124
  146EMI    H0P 2771   2.008   2.444   1.269
  146EMI    H0Q 2772   2.181   2.458   1.281
  146EMI    N02 2773   2.107   2.211   1.357
  146EMI    H0E 2774   2.206   2.236   1.176
  147EMI    C01 2775   3.363   4.022   3.126
  147EMI    C04 2776   3.551   3.957   3.232
  147EMI    C03 2777   3.452   3.954   3.322
  147EMI    H07 2778   3.294   4.055   3.051
  147EMI    H09 2779   3.654   3.933   3.249
  147EMI    H08 2780   3.459   3.927   3.425
  147EMI    C05 2781   3.197   4.009   3.309
  147EMI    H0B 2782   3.123   3.990   3.234
  147EMI    H0C 2783   3.186   3.938   3.388
  147EMI    H0D 2784   3.184   4.108   3.348
  147EMI    N00 2785   3.331   3.997   3.251
  147EMI    C06 2786   3.561   4.020   2.979
  147EMI    H0F 2787   3.598   4.120   2.973
  147EMI    C0N 2788   3.680   3.922   2.972
  147EMI    H0O 2789   3.731   3.935   2.879
  147EMI    H0P 2790   3.747   3.940   3.053
  147EMI    H0Q 2791   3.643   3.821   2.978
  147EMI    N02 2792   3.490   4.002   3.107
  147EMI    H0E 2793   3.494   4.001   2.898
  148EMI    C01 2794   0.296   4.220   4.670
  148EMI    C04 2795   0.185   4.384   4.560
  148EMI    C03 2796   0.169   4.271   4.490
  148EMI    H07 2797   0.355   4.168   4.742
  148EMI    H09 2798   0.146   4.480   4.537
  148EMI    H08 2799   0.114   4.259   4.400
  148EMI    C05 2800   0.252   4.026   4.524
  148EMI    H0B 2801   0.262   3.965   4.612
  148EMI    H0C 2802   0.164   3.997   4.471
  148EMI    H0D 2803   0.338   4.012   4.462
  148EMI    N00 2804   0.242   4.167   4.564
  148EMI    C06 2805   0.312   4.441   4.781
  148EMI    H0F 2806   0.406   4.484   4.754
  148EMI    C0N 2807   0.207   4.552   4.799
  148EMI    H0O 2808   0.239   4.619   4.876
  148EMI    H0P 2809   0.196   4.605   4.707
  148EMI    H0Q 2810   0.113   4.509   4.827
  148EMI    N02 2811   0.268   4.348   4.676
  148EMI    H0E 2812   0.323   4.387   4.873
  149EMI    C01 2813   1.454   0.683   3.483
  149EMI    C04 2814   1.500   0.553   3.304
  149EMI    C03 2815   1.604   0.636   3.321
  149EMI    H07 2816   1.406   0.727   3.567
  149EMI    H09 2817   1.489   0.478   3.228
  149EMI    H08 2818   1.693   0.640   3.261
  149EMI    C05 2819   1.657   0.824   3.493
  149EMI    H0B 2820   1.639   0.832   3.599
  149EMI    H0C 2821   1.759   0.801   3.476
  149EMI    H0D 2822   1.633   0.918   3.447
  149EMI    N00 2823   1.572   0.718   3.437
  149EMI    C06 2824   1.275   0.520   3.432
  149EMI    H0F 2825   1.199   0.572   3.377
  149EMI    C0N 2826   1.283   0.374   3.384
  149EMI    H0O 2827   1.188   0.327   3.400
  149EMI    H0P 2828   1.307   0.372   3.280
  149EMI    H0Q 2829   1.358   0.322   3.439
  149EMI    N02 2830   1.405   0.586   3.410
  149EMI    H0E 2831   1.251   0.523   3.536
  150EMI    C01 2832   0.638   0.668   0.522
  150EMI    C04 2833   0.704   0.485   0.636
  150EMI    C03 2834   0.571   0.494   0.650
  150EMI    H07 2835   0.638   0.756   0.462
  150EMI    H09 2836   0.768   0.409   0.677
  150EMI    H08 2837   0.507   0.428   0.705
  150EMI    C05 2838   0.394   0.664   0.562
  150EMI    H0B 2839   0.383   0.714   0.468
  150EMI    H0C 2840   0.325   0.582   0.567
  150EMI    H0D 2841   0.373   0.733   0.642
  150EMI    N00 2842   0.531   0.614   0.575
  150EMI    C06 2843   0.881   0.629   0.510
  150EMI    H0F 2844   0.928   0.693   0.583
  150EMI    C0N 2845   0.962   0.499   0.498
  150EMI    H0O 2846   1.062   0.521   0.467
  150EMI    H0P 2847   0.964   0.449   0.593
  150EMI    H0Q 2848   0.916   0.435   0.426
  150EMI    N02 2849   0.744   0.598   0.553
  150EMI    H0E 2850   0.879   0.679   0.416
  151EMI    C01 2851   2.181   1.802   4.336
  151EMI    C04 2852   2.218   2.005   4.244
  151EMI    C03 2853   2.337   1.947   4.261
  151EMI    H07 2854   2.134   1.716   4.377
  151EMI    H09 2855   2.198   2.102   4.203
  151EMI    H08 2856   2.433   1.989   4.236
  151EMI    C05 2857   2.412   1.717   4.357
  151EMI    H0B 2858   2.371   1.618   4.348
  151EMI    H0C 2859   2.496   1.726   4.291
  151EMI    H0D 2860   2.443   1.733   4.458
  151EMI    N00 2861   2.310   1.816   4.320
  151EMI    C06 2862   1.973   1.929   4.295
  151EMI    H0F 2863   1.944   1.974   4.387
  151EMI    C0N 2864   1.933   2.021   4.178
  151EMI    H0O 2865   1.827   2.035   4.179
  151EMI    H0P 2866   1.982   2.115   4.188
  151EMI    H0Q 2867   1.961   1.975   4.085
  151EMI    N02 2868   2.119   1.909   4.293
  151EMI    H0E 2869   1.924   1.835   4.285
  152EMI    C01 2870   0.528   4.771   2.220
  152EMI    C04 2871   0.547   4.994   2.186
  152EMI    C03 2872   0.670   4.943   2.183
  152EMI    H07 2873   0.489   4.674   2.237
  152EMI    H09 2874   0.519   5.096   2.173
  152EMI    H08 2875   0.761   4.997   2.168
  152EMI    C05 2876   0.765   4.702   2.210
  152EMI    H0B 2877   0.730   4.606   2.176
  152EMI    H0C 2878   0.845   4.735   2.148
  152EMI    H0D 2879   0.800   4.692   2.311
  152EMI    N00 2880   0.655   4.799   2.205
  152EMI    C06 2881   0.310   4.888   2.221
  152EMI    H0F 2882   0.283   4.904   2.323
  152EMI    C0N 2883   0.258   5.005   2.135
  152EMI    H0O 2884   0.152   5.010   2.143
  152EMI    H0P 2885   0.302   5.096   2.169
  152EMI    H0Q 2886   0.286   4.988   2.032
  152EMI    N02 2887   0.457   4.880   2.210
  152EMI    H0E 2888   0.267   4.796   2.186
  153EMI    C01 2889   3.844   0.832   1.661
  153EMI    C04 2890   3.860   0.794   1.883
  153EMI    C03 2891   3.984   0.814   1.837
  153EMI    H07 2892   3.805   0.846   1.562
  153EMI    H09 2893   3.831   0.773   1.984
  153EMI    H08 2894   4.075   0.813   1.894
  153EMI    C05 2895   4.081   0.866   1.600
  153EMI    H0B 2896   4.046   0.929   1.520
  153EMI    H0C 2897   4.160   0.916   1.652
  153EMI    H0D 2898   4.117   0.774   1.560
  153EMI    N00 2899   3.970   0.839   1.693
  153EMI    C06 2900   3.625   0.791   1.769
  153EMI    H0F 2901   3.599   0.689   1.752
  153EMI    C0N 2902   3.571   0.836   1.906
  153EMI    H0O 2903   3.465   0.825   1.908
  153EMI    H0P 2904   3.614   0.774   1.983
  153EMI    H0Q 2905   3.597   0.938   1.923
  153EMI    N02 2906   3.771   0.806   1.767
  153EMI    H0E 2907   3.582   0.853   1.692
  154EMI    C01 2908   4.552   4.253   0.251
  154EMI    C04 2909   4.462   4.046   0.254
  154EMI    C03 2910   4.591   4.034   0.287
  154EMI    H07 2911   4.565   4.359   0.242
  154EMI    H09 2912   4.390   3.968   0.245
  154EMI    H08 2913   4.643   3.943   0.311
  154EMI    C05 2914   4.786   4.205   0.315
  154EMI    H0B 2915   4.790   4.303   0.357
  154EMI    H0C 2916   4.826   4.135   0.386
  154EMI    H0D 2917   4.844   4.202   0.225
  154EMI    N00 2918   4.647   4.169   0.285
  154EMI    C06 2919   4.312   4.251   0.192
  154EMI    H0F 2920   4.305   4.255   0.085
  154EMI    C0N 2921   4.196   4.168   0.248
  154EMI    H0O 2922   4.103   4.213   0.220
  154EMI    H0P 2923   4.201   4.069   0.209
  154EMI    H0Q 2924   4.202   4.165   0.355
  154EMI    N02 2925   4.440   4.190   0.231
  154EMI    H0E 2926   4.307   4.351   0.231
  155EMI    C01 2927   2.614   0.270   4.998
  155EMI    C04 2928   2.617   0.441   4.850
  155EMI    C03 2929   2.509   0.367   4.823
  155EMI    H07 2930   2.639   0.204   5.078
  155EMI    H09 2931   2.649   0.529   4.799
  155EMI    H08 2932   2.437   0.384   4.746
  155EMI    C05 2933   2.410   0.150   4.929
  155EMI    H0B 2934   2.401   0.117   5.030
  155EMI    H0C 2935   2.315   0.186   4.895
  155EMI    H0D 2936   2.440   0.068   4.867
  155EMI    N00 2937   2.510   0.257   4.920
  155EMI    C06 2938   2.806   0.422   5.029
  155EMI    H0F 2939   2.891   0.378   4.982
  155EMI    C0N 2940   2.816   0.576   5.018
  155EMI    H0O 2941   2.906   0.609   5.065
  155EMI    H0P 2942   2.818   0.604   4.914
  155EMI    H0Q 2943   2.731   0.621   5.065
  155EMI    N02 2944   2.683   0.376   4.964
  155EMI    H0E 2945   2.805   0.395   5.133
  156EMI    C01 2946   3.334   1.277   0.700
  156EMI    C04 2947   3.150   1.356   0.595
  156EMI    C03 2948   3.228   1.461   0.624
  156EMI    H07 2949   3.405   1.211   0.745
  156EMI    H09 2950   3.055   1.358   0.546
  156EMI    H08 2951   3.208   1.564   0.601
  156EMI    C05 2952   3.460   1.485   0.741
  156EMI    H0B 2953   3.549   1.426   0.737
  156EMI    H0C 2954   3.472   1.572   0.681
  156EMI    H0D 2955   3.441   1.514   0.843
  156EMI    N00 2956   3.346   1.406   0.691
  156EMI    C06 2957   3.173   1.099   0.637
  156EMI    H0F 2958   3.115   1.076   0.724
  156EMI    C0N 2959   3.086   1.083   0.511
  156EMI    H0O 2960   3.051   0.982   0.505
  156EMI    H0P 2961   3.002   1.149   0.517
  156EMI    H0Q 2962   3.144   1.106   0.424
  156EMI    N02 2963   3.221   1.238   0.646
  156EMI    H0E 2964   3.257   1.033   0.631
  157EMI    C01 2965   0.670   4.660   4.666
  157EMI    C04 2966   0.673   4.730   4.881
  157EMI    C03 2967   0.675   4.839   4.803
  157EMI    H07 2968   0.669   4.599   4.579
  157EMI    H09 2969   0.674   4.727   4.988
  157EMI    H08 2970   0.677   4.941   4.836
  157EMI    C05 2971   0.674   4.876   4.545
  157EMI    H0B 2972   0.622   4.826   4.466
  157EMI    H0C 2973   0.626   4.969   4.566
  157EMI    H0D 2974   0.775   4.894   4.515
  157EMI    N00 2975   0.673   4.791   4.665
  157EMI    C06 2976   0.667   4.474   4.829
  157EMI    H0F 2977   0.767   4.438   4.838
  157EMI    C0N 2978   0.595   4.461   4.964
  157EMI    H0O 2979   0.593   4.358   4.993
  157EMI    H0P 2980   0.647   4.518   5.038
  157EMI    H0Q 2981   0.495   4.497   4.955
  157EMI    N02 2982   0.670   4.616   4.789
  157EMI    H0E 2983   0.615   4.418   4.755
  158EMI    C01 2984   4.080   3.141   0.186
  158EMI    C04 2985   3.885   3.039   0.237
  158EMI    C03 2986   3.981   2.945   0.240
  158EMI    H07 2987   4.153   3.215   0.160
  158EMI    H09 2988   3.781   3.024   0.256
  158EMI    H08 2989   3.969   2.841   0.262
  158EMI    C05 2990   4.239   2.951   0.198
  158EMI    H0B 2991   4.314   3.023   0.224
  158EMI    H0C 2992   4.243   2.869   0.265
  158EMI    H0D 2993   4.255   2.917   0.098
  158EMI    N00 2994   4.106   3.014   0.206
  158EMI    C06 2995   3.887   3.295   0.186
  158EMI    H0F 2996   3.855   3.307   0.085
  158EMI    C0N 2997   3.764   3.302   0.279
  158EMI    H0O 2998   3.716   3.397   0.268
  158EMI    H0P 2999   3.695   3.224   0.253
  158EMI    H0Q 3000   3.795   3.289   0.381
  158EMI    N02 3001   3.952   3.164   0.201
  158EMI    H0E 3002   3.955   3.372   0.212
  159EMI    C01 3003   3.177   4.326   3.590
  159EMI    C04 3004   3.068   4.333   3.787
  159EMI    C03 3005   3.174   4.414   3.798
  159EMI    H07 3006   3.205   4.302   3.490
  159EMI    H09 3007   2.995   4.312   3.863
  159EMI    H08 3008   3.202   4.472   3.883
  159EMI    C05 3009   3.365   4.481   3.633
  159EMI    H0B 3010   3.365   4.501   3.528
  159EMI    H0C 3011   3.368   4.573   3.687
  159EMI    H0D 3012   3.450   4.422   3.658
  159EMI    N00 3013   3.243   4.408   3.668
  159EMI    C06 3014   2.977   4.181   3.595
  159EMI    H0F 3015   3.010   4.081   3.615
  159EMI    C0N 3016   2.839   4.204   3.659
  159EMI    H0O 3017   2.768   4.134   3.618
  159EMI    H0P 3018   2.845   4.189   3.765
  159EMI    H0Q 3019   2.806   4.304   3.639
  159EMI    N02 3020   3.073   4.277   3.652
  159EMI    H0E 3021   2.970   4.196   3.489
  160EMI    C01 3022   4.715   3.513   1.052
  160EMI    C04 3023   4.797   3.609   1.239
  160EMI    C03 3024   4.664   3.611   1.250
  160EMI    H07 3025   4.707   3.465   0.957
  160EMI    H09 3026   4.868   3.647   1.311
  160EMI    H08 3027   4.606   3.649   1.331
  160EMI    C05 3028   4.472   3.527   1.094
  160EMI    H0B 3029   4.462   3.440   1.033
  160EMI    H0C 3030   4.415   3.514   1.184
  160EMI    H0D 3031   4.435   3.612   1.041
  160EMI    N00 3032   4.613   3.548   1.127
  160EMI    C06 3033   4.962   3.522   1.056
  160EMI    H0F 3034   4.992   3.607   0.998
  160EMI    C0N 3035   5.061   3.502   1.172
  160EMI    H0O 3036   5.159   3.485   1.133
  160EMI    H0P 3037   5.062   3.589   1.234
  160EMI    H0Q 3038   5.031   3.417   1.231
  160EMI    N02 3039   4.827   3.546   1.111
  160EMI    H0E 3040   4.961   3.435   0.995
  161EMI    C01 3041   0.736   4.186   3.653
  161EMI    C04 3042   0.877   4.354   3.706
  161EMI    C03 3043   0.886   4.262   3.803
  161EMI    H07 3044   0.663   4.125   3.602
  161EMI    H09 3045   0.930   4.447   3.700
  161EMI    H08 3046   0.949   4.266   3.890
  161EMI    C05 3047   0.771   4.031   3.842
  161EMI    H0B 3048   0.744   3.952   3.775
  161EMI    H0C 3049   0.860   4.005   3.895
  161EMI    H0D 3050   0.691   4.047   3.912
  161EMI    N00 3051   0.794   4.154   3.766
  161EMI    C06 3052   0.735   4.370   3.488
  161EMI    H0F 3053   0.650   4.432   3.509
  161EMI    C0N 3054   0.850   4.456   3.433
  161EMI    H0O 3055   0.818   4.505   3.344
  161EMI    H0P 3056   0.877   4.530   3.506
  161EMI    H0Q 3057   0.934   4.394   3.412
  161EMI    N02 3058   0.778   4.302   3.611
  161EMI    H0E 3059   0.708   4.296   3.414
  162EMI    C01 3060   1.488   1.181   3.079
  162EMI    C04 3061   1.550   1.000   3.199
  162EMI    C03 3062   1.503   1.091   3.285
  162EMI    H07 3063   1.469   1.248   2.998
  162EMI    H09 3064   1.588   0.902   3.222
  162EMI    H08 3065   1.496   1.081   3.392
  162EMI    C05 3066   1.407   1.332   3.257
  162EMI    H0B 3067   1.342   1.375   3.183
  162EMI    H0C 3068   1.351   1.311   3.346
  162EMI    H0D 3069   1.486   1.400   3.279
  162EMI    N00 3070   1.464   1.207   3.205
  162EMI    C06 3071   1.578   0.998   2.939
  162EMI    H0F 3072   1.680   1.020   2.918
  162EMI    C0N 3073   1.561   0.845   2.951
  162EMI    H0O 3074   1.590   0.799   2.858
  162EMI    H0P 3075   1.623   0.808   3.030
  162EMI    H0Q 3076   1.459   0.822   2.972
  162EMI    N02 3077   1.539   1.061   3.066
  162EMI    H0E 3078   1.516   1.035   2.860
  163EMI    C01 3079   4.106   1.498   4.212
  163EMI    C04 3080   4.082   1.699   4.312
  163EMI    C03 3081   4.172   1.714   4.215
  163EMI    H07 3082   4.095   1.395   4.187
  163EMI    H09 3083   4.047   1.775   4.380
  163EMI    H08 3084   4.224   1.804   4.188
  163EMI    C05 3085   4.274   1.550   4.039
  163EMI    H0B 3086   4.231   1.471   3.981
  163EMI    H0C 3087   4.286   1.637   3.977
  163EMI    H0D 3088   4.369   1.519   4.076
  163EMI    N00 3089   4.185   1.582   4.152
  163EMI    C06 3090   3.942   1.496   4.398
  163EMI    H0F 3091   3.992   1.457   4.484
  163EMI    C0N 3092   3.838   1.601   4.441
  163EMI    H0O 3093   3.767   1.555   4.507
  163EMI    H0P 3094   3.888   1.681   4.493
  163EMI    H0Q 3095   3.788   1.639   4.355
  163EMI    N02 3096   4.041   1.559   4.308
  163EMI    H0E 3097   3.893   1.416   4.346
  164EMI    C01 3098   2.010   2.695   1.140
  164EMI    C04 3099   1.850   2.604   1.270
  164EMI    C03 3100   1.846   2.541   1.152
  164EMI    H07 3101   2.091   2.755   1.104
  164EMI    H09 3102   1.788   2.585   1.356
  164EMI    H08 3103   1.779   2.462   1.124
  164EMI    C05 3104   1.982   2.565   0.931
  164EMI    H0B 3105   2.087   2.582   0.913
  164EMI    H0C 3106   1.960   2.461   0.916
  164EMI    H0D 3107   1.924   2.624   0.864
  164EMI    N00 3108   1.950   2.602   1.070
  164EMI    C06 3109   2.000   2.795   1.365
  164EMI    H0F 3110   1.944   2.886   1.357
  164EMI    C0N 3111   1.975   2.731   1.503
  164EMI    H0O 3112   2.005   2.799   1.580
  164EMI    H0P 3113   1.870   2.710   1.514
  164EMI    H0Q 3114   2.031   2.640   1.511
  164EMI    N02 3115   1.958   2.703   1.259
  164EMI    H0E 3116   2.104   2.817   1.355
  165EMI    C01 3117   1.862   1.647   3.123
  165EMI    C04 3118   1.764   1.443   3.129
  165EMI    C03 3119   1.875   1.436   3.202
  165EMI    H07 3120   1.883   1.749   3.101
  165EMI    H09 3121   1.693   1.365   3.111
  165EMI    H08 3122   1.912   1.350   3.255
  165EMI    C05 3123   2.062   1.608   3.262
  165EMI    H0B 3124   2.058   1.712   3.287
  165EMI    H0C 3125   2.075   1.551   3.352
  165EMI    H0D 3126   2.144   1.590   3.196
  165EMI    N00 3127   1.937   1.569   3.196
  165EMI    C06 3128   1.652   1.636   2.993
  165EMI    H0F 3129   1.678   1.622   2.890
  165EMI    C0N 3130   1.519   1.564   3.023
  165EMI    H0O 3131   1.442   1.604   2.960
  165EMI    H0P 3132   1.530   1.459   3.003
  165EMI    H0Q 3133   1.493   1.578   3.126
  165EMI    N02 3134   1.758   1.581   3.079
  165EMI    H0E 3135   1.640   1.740   3.013
  166EMI    C01 3136   0.695   0.522   3.455
  166EMI    C04 3137   0.915   0.478   3.478
  166EMI    C03 3138   0.898   0.608   3.504
  166EMI    H07 3139   0.590   0.512   3.436
  166EMI    H09 3140   1.008   0.423   3.480
  166EMI    H08 3141   0.974   0.678   3.531
  166EMI    C05 3142   0.689   0.763   3.507
  166EMI    H0B 3143   0.588   0.748   3.540
  166EMI    H0C 3144   0.742   0.821   3.580
  166EMI    H0D 3145   0.687   0.817   3.414
  166EMI    N00 3146   0.755   0.633   3.488
  166EMI    C06 3147   0.752   0.285   3.411
  166EMI    H0F 3148   0.760   0.273   3.305
  166EMI    C0N 3149   0.852   0.192   3.481
  166EMI    H0O 3150   0.830   0.090   3.455
  166EMI    H0P 3151   0.952   0.216   3.449
  166EMI    H0Q 3152   0.845   0.204   3.587
  166EMI    N02 3153   0.782   0.425   3.446
  166EMI    H0E 3154   0.653   0.261   3.443
  167EMI    C01 3155   1.226   3.994   4.863
  167EMI    C04 3156   1.180   3.844   4.702
  167EMI    C03 3157   1.178   3.965   4.645
  167EMI    H07 3158   1.249   4.039   4.958
  167EMI    H09 3159   1.163   3.750   4.654
  167EMI    H08 3160   1.158   3.987   4.542
  167EMI    C05 3161   1.216   4.206   4.736
  167EMI    H0B 3162   1.285   4.246   4.807
  167EMI    H0C 3163   1.249   4.230   4.637
  167EMI    H0D 3164   1.119   4.249   4.753
  167EMI    N00 3165   1.208   4.060   4.752
  167EMI    C06 3166   1.225   3.761   4.945
  167EMI    H0F 3167   1.130   3.743   4.991
  167EMI    C0N 3168   1.275   3.631   4.880
  167EMI    H0O 3169   1.285   3.555   4.954
  167EMI    H0P 3170   1.206   3.600   4.805
  167EMI    H0Q 3171   1.371   3.649   4.834
  167EMI    N02 3172   1.212   3.866   4.843
  167EMI    H0E 3173   1.295   3.793   5.020
  168EMI    C01 3174   3.284   3.390   0.593
  168EMI    C04 3175   3.346   3.513   0.414
  168EMI    C03 3176   3.433   3.412   0.425
  168EMI    H07 3177   3.232   3.354   0.679
  168EMI    H09 3178   3.346   3.590   0.340
  168EMI    H08 3179   3.517   3.392   0.362
  168EMI    C05 3180   3.457   3.214   0.593
  168EMI    H0B 3181   3.385   3.150   0.640
  168EMI    H0C 3182   3.504   3.161   0.512
  168EMI    H0D 3183   3.532   3.242   0.665
  168EMI    N00 3184   3.391   3.334   0.542
  168EMI    C06 3185   3.136   3.584   0.552
  168EMI    H0F 3186   3.167   3.662   0.618
  168EMI    C0N 3187   3.085   3.644   0.420
  168EMI    H0O 3188   3.001   3.708   0.440
  168EMI    H0P 3189   3.163   3.701   0.374
  168EMI    H0Q 3190   3.054   3.566   0.354
  168EMI    N02 3191   3.251   3.496   0.524
  168EMI    H0E 3192   3.058   3.527   0.598
  169EMI    C01 3193   2.329   1.071   1.143
  169EMI    C04 3194   2.167   0.935   1.220
  169EMI    C03 3195   2.156   1.051   1.286
  169EMI    H07 3196   2.412   1.109   1.088
  169EMI    H09 3197   2.105   0.848   1.233
  169EMI    H08 3198   2.085   1.076   1.362
  169EMI    C05 3199   2.290   1.275   1.277
  169EMI    H0B 3200   2.332   1.330   1.195
  169EMI    H0C 3201   2.199   1.321   1.309
  169EMI    H0D 3202   2.360   1.273   1.358
  169EMI    N00 3203   2.263   1.137   1.234
  169EMI    C06 3204   2.329   0.848   1.035
  169EMI    H0F 3205   2.403   0.789   1.083
  169EMI    C0N 3206   2.212   0.758   0.991
  169EMI    H0O 3207   2.247   0.684   0.923
  169EMI    H0P 3208   2.169   0.710   1.077
  169EMI    H0Q 3209   2.137   0.818   0.943
  169EMI    N02 3210   2.280   0.951   1.128
  169EMI    H0E 3211   2.371   0.896   0.949
  170EMI    C01 3212   4.345   3.175   0.434
  170EMI    C04 3213   4.300   2.987   0.551
  170EMI    C03 3214   4.187   3.058   0.546
  170EMI    H07 3215   4.395   3.250   0.377
  170EMI    H09 3216   4.315   2.893   0.599
  170EMI    H08 3217   4.093   3.032   0.589
  170EMI    C05 3218   4.125   3.288   0.438
  170EMI    H0B 3219   4.153   3.333   0.345
  170EMI    H0C 3220   4.026   3.248   0.431
  170EMI    H0D 3221   4.128   3.361   0.516
  170EMI    N00 3222   4.219   3.179   0.470
  170EMI    C06 3223   4.541   3.026   0.457
  170EMI    H0F 3224   4.601   3.064   0.537
  170EMI    C0N 3225   4.551   2.872   0.453
  170EMI    H0O 3226   4.653   2.844   0.438
  170EMI    H0P 3227   4.516   2.832   0.546
  170EMI    H0Q 3228   4.491   2.835   0.373
  170EMI    N02 3229   4.401   3.065   0.478
  170EMI    H0E 3230   4.576   3.066   0.364
  171EMI    C01 3231   4.727   1.187   1.033
  171EMI    C04 3232   4.742   0.963   1.051
  171EMI    C03 3233   4.866   1.012   1.062
  171EMI    H07 3234   4.688   1.286   1.022
  171EMI    H09 3235   4.713   0.860   1.055
  171EMI    H08 3236   4.956   0.956   1.076
  171EMI    C05 3237   4.963   1.254   1.056
  171EMI    H0B 3238   4.928   1.347   1.096
  171EMI    H0C 3239   5.041   1.215   1.118
  171EMI    H0D 3240   5.002   1.270   0.957
  171EMI    N00 3241   4.853   1.157   1.050
  171EMI    C06 3242   4.508   1.073   1.016
  171EMI    H0F 3243   4.484   1.065   0.912
  171EMI    C0N 3244   4.452   0.951   1.091
  171EMI    H0O 3245   4.346   0.947   1.079
  171EMI    H0P 3246   4.496   0.862   1.052
  171EMI    H0Q 3247   4.476   0.960   1.195
  171EMI    N02 3248   4.654   1.079   1.032
  171EMI    H0E 3249   4.464   1.163   1.055
  172EMI    C01 3250   3.051   3.610   3.137
  172EMI    C04 3251   2.937   3.662   3.325
  172EMI    C03 3252   2.961   3.776   3.260
  172EMI    H07 3253   3.102   3.556   3.060
  172EMI    H09 3254   2.886   3.650   3.418
  172EMI    H08 3255   2.932   3.875   3.291
  172EMI    C05 3256   3.083   3.833   3.036
  172EMI    H0B 3257   3.085   3.784   2.941
  172EMI    H0C 3258   3.017   3.918   3.032
  172EMI    H0D 3259   3.181   3.866   3.061
  172EMI    N00 3260   3.035   3.740   3.139
  172EMI    C06 3261   2.996   3.412   3.275
  172EMI    H0F 3262   3.082   3.388   3.332
  172EMI    C0N 3263   2.869   3.379   3.356
  172EMI    H0O 3264   2.868   3.274   3.379
  172EMI    H0P 3265   2.869   3.435   3.447
  172EMI    H0Q 3266   2.782   3.403   3.298
  172EMI    N02 3267   2.997   3.556   3.243
  172EMI    H0E 3268   2.996   3.356   3.184
  173EMI    C01 3269   3.308   3.041   3.889
  173EMI    C04 3270   3.513   2.989   3.810
  173EMI    C03 3271   3.493   2.915   3.919
  173EMI    H07 3272   3.212   3.085   3.901
  173EMI    H09 3273   3.600   2.990   3.747
  173EMI    H08 3274   3.561   2.844   3.962
  173EMI    C05 3275   3.295   2.893   4.087
  173EMI    H0B 3276   3.189   2.894   4.073
  173EMI    H0C 3277   3.329   2.793   4.102
  173EMI    H0D 3278   3.319   2.953   4.173
  173EMI    N00 3279   3.360   2.950   3.968
  173EMI    C06 3280   3.368   3.167   3.685
  173EMI    H0F 3281   3.403   3.263   3.716
  173EMI    C0N 3282   3.444   3.123   3.559
  173EMI    H0O 3283   3.427   3.194   3.480
  173EMI    H0P 3284   3.549   3.118   3.580
  173EMI    H0Q 3285   3.409   3.026   3.528
  173EMI    N02 3286   3.392   3.070   3.793
  173EMI    H0E 3287   3.263   3.172   3.664
  174EMI    C01 3288   3.680   1.402   2.057
  174EMI    C04 3289   3.553   1.313   1.894
  174EMI    C03 3290   3.482   1.411   1.950
  174EMI    H07 3291   3.761   1.422   2.125
  174EMI    H09 3292   3.522   1.250   1.813
  174EMI    H08 3293   3.383   1.443   1.924
  174EMI    C05 3294   3.530   1.578   2.145
  174EMI    H0B 3295   3.618   1.631   2.173
  174EMI    H0C 3296   3.463   1.644   2.095
  174EMI    H0D 3297   3.483   1.539   2.233
  174EMI    N00 3298   3.566   1.467   2.056
  174EMI    C06 3299   3.791   1.217   1.937
  174EMI    H0F 3300   3.779   1.128   1.996
  174EMI    C0N 3301   3.791   1.179   1.788
  174EMI    H0O 3302   3.871   1.111   1.768
  174EMI    H0P 3303   3.698   1.132   1.764
  174EMI    H0Q 3304   3.802   1.267   1.729
  174EMI    N02 3305   3.680   1.309   1.965
  174EMI    H0E 3306   3.884   1.264   1.962
  175EMI    C01 3307   0.773   4.112   1.476
  175EMI    C04 3308   0.858   4.225   1.301
  175EMI    C03 3309   0.743   4.284   1.333
  175EMI    H07 3310   0.760   4.041   1.555
  175EMI    H09 3311   0.925   4.254   1.222
  175EMI    H08 3312   0.698   4.368   1.285
  175EMI    C05 3313   0.564   4.236   1.517
  175EMI    H0B 3314   0.572   4.207   1.620
  175EMI    H0C 3315   0.542   4.341   1.512
  175EMI    H0D 3316   0.484   4.181   1.471
  175EMI    N00 3317   0.690   4.208   1.447
  175EMI    C06 3318   0.990   4.022   1.398
  175EMI    H0F 3319   0.969   3.937   1.335
  175EMI    C0N 3320   1.116   4.093   1.346
  175EMI    H0O 3321   1.199   4.026   1.349
  175EMI    H0P 3322   1.100   4.127   1.246
  175EMI    H0Q 3323   1.137   4.178   1.409
  175EMI    N02 3324   0.876   4.115   1.395
  175EMI    H0E 3325   1.006   3.988   1.498
  176EMI    C01 3326   1.158   1.809   2.549
  176EMI    C04 3327   1.035   1.730   2.722
  176EMI    C03 3328   1.159   1.682   2.736
  176EMI    H07 3329   1.188   1.861   2.461
  176EMI    H09 3330   0.951   1.712   2.786
  176EMI    H08 3331   1.195   1.617   2.813
  176EMI    C05 3332   1.378   1.708   2.596
  176EMI    H0B 3333   1.421   1.792   2.546
  176EMI    H0C 3334   1.429   1.692   2.689
  176EMI    H0D 3335   1.387   1.621   2.535
  176EMI    N00 3336   1.236   1.735   2.623
  176EMI    C06 3337   0.923   1.886   2.545
  176EMI    H0F 3338   0.870   1.824   2.477
  176EMI    C0N 3339   0.829   1.929   2.660
  176EMI    H0O 3340   0.745   1.982   2.619
  176EMI    H0P 3341   0.794   1.841   2.711
  176EMI    H0Q 3342   0.882   1.991   2.728
  176EMI    N02 3343   1.037   1.812   2.600
  176EMI    H0E 3344   0.958   1.973   2.494
  177EMI    C01 3345   1.821   2.826   0.794
  177EMI    C04 3346   1.863   2.856   1.014
  177EMI    C03 3347   1.767   2.764   1.004
  177EMI    H07 3348   1.824   2.834   0.687
  177EMI    H09 3349   1.907   2.894   1.104
  177EMI    H08 3350   1.718   2.713   1.085
  177EMI    C05 3351   1.643   2.655   0.802
  177EMI    H0B 3352   1.677   2.623   0.706
  177EMI    H0C 3353   1.631   2.570   0.866
  177EMI    H0D 3354   1.549   2.705   0.791
  177EMI    N00 3355   1.742   2.747   0.861
  177EMI    C06 3356   1.997   2.994   0.837
  177EMI    H0F 3357   1.952   3.091   0.831
  177EMI    C0N 3358   2.110   2.996   0.942
  177EMI    H0O 3359   2.184   3.068   0.914
  177EMI    H0P 3360   2.070   3.022   1.038
  177EMI    H0Q 3361   2.156   2.899   0.948
  177EMI    N02 3362   1.896   2.895   0.876
  177EMI    H0E 3363   2.038   2.968   0.742
  178EMI    C01 3364   0.209   3.775   0.652
  178EMI    C04 3365   0.404   3.695   0.733
  178EMI    C03 3366   0.398   3.824   0.765
  178EMI    H07 3367   0.114   3.782   0.604
  178EMI    H09 3368   0.483   3.626   0.755
  178EMI    H08 3369   0.471   3.881   0.819
  178EMI    C05 3370   0.221   4.011   0.722
  178EMI    H0B 3371   0.114   4.010   0.725
  178EMI    H0C 3372   0.258   4.056   0.813
  178EMI    H0D 3373   0.254   4.068   0.638
  178EMI    N00 3374   0.271   3.874   0.711
  178EMI    C06 3375   0.242   3.535   0.604
  178EMI    H0F 3376   0.279   3.526   0.504
  178EMI    C0N 3377   0.304   3.423   0.690
  178EMI    H0O 3378   0.276   3.327   0.650
  178EMI    H0P 3379   0.411   3.432   0.690
  178EMI    H0Q 3380   0.267   3.431   0.791
  178EMI    N02 3381   0.280   3.665   0.660
  178EMI    H0E 3382   0.136   3.525   0.604
  179EMI    C01 3383   3.666   1.774   3.340
  179EMI    C04 3384   3.503   1.620   3.308
  179EMI    C03 3385   3.617   1.567   3.263
  179EMI    H07 3386   3.718   1.863   3.367
  179EMI    H09 3387   3.406   1.574   3.308
  179EMI    H08 3388   3.630   1.470   3.219
  179EMI    C05 3389   3.863   1.655   3.250
  179EMI    H0B 3390   3.922   1.713   3.318
  179EMI    H0C 3391   3.891   1.552   3.256
  179EMI    H0D 3392   3.879   1.690   3.150
  179EMI    N00 3393   3.720   1.669   3.285
  179EMI    C06 3394   3.443   1.850   3.418
  179EMI    H0F 3395   3.402   1.912   3.341
  179EMI    C0N 3396   3.330   1.773   3.489
  179EMI    H0O 3397   3.262   1.843   3.532
  179EMI    H0P 3398   3.278   1.712   3.417
  179EMI    H0Q 3399   3.372   1.711   3.565
  179EMI    N02 3400   3.537   1.754   3.358
  179EMI    H0E 3401   3.495   1.911   3.489
  180EMI    C01 3402   3.749   3.318   1.365
  180EMI    C04 3403   3.973   3.329   1.346
  180EMI    C03 3404   3.942   3.368   1.470
  180EMI    H07 3405   3.645   3.303   1.344
  180EMI    H09 3406   4.071   3.323   1.303
  180EMI    H08 3407   4.010   3.399   1.547
  180EMI    C05 3408   3.716   3.392   1.598
  180EMI    H0B 3409   3.628   3.332   1.600
  180EMI    H0C 3410   3.774   3.373   1.687
  180EMI    H0D 3411   3.689   3.496   1.596
  180EMI    N00 3412   3.796   3.359   1.480
  180EMI    C06 3413   3.831   3.250   1.142
  180EMI    H0F 3414   3.819   3.334   1.077
  180EMI    C0N 3415   3.955   3.170   1.101
  180EMI    H0O 3416   3.944   3.136   1.000
  180EMI    H0P 3417   4.042   3.233   1.107
  180EMI    H0Q 3418   3.967   3.086   1.166
  180EMI    N02 3419   3.846   3.298   1.280
  180EMI    H0E 3420   3.744   3.188   1.135
  181EMI    C01 3421   3.258   0.914   4.730
  181EMI    C04 3422   3.212   0.698   4.775
  181EMI    C03 3423   3.112   0.771   4.825
  181EMI    H07 3424   3.305   1.004   4.695
  181EMI    H09 3425   3.223   0.591   4.779
  181EMI    H08 3426   3.025   0.734   4.876
  181EMI    C05 3427   3.061   1.027   4.829
  181EMI    H0B 3428   3.075   1.104   4.756
  181EMI    H0C 3429   2.958   0.998   4.832
  181EMI    H0D 3430   3.090   1.063   4.926
  181EMI    N00 3431   3.144   0.910   4.794
  181EMI    C06 3432   3.432   0.759   4.647
  181EMI    H0F 3433   3.511   0.759   4.719
  181EMI    C0N 3434   3.419   0.620   4.583
  181EMI    H0O 3435   3.511   0.595   4.534
  181EMI    H0P 3436   3.399   0.547   4.659
  181EMI    H0Q 3437   3.340   0.620   4.512
  181EMI    N02 3438   3.305   0.794   4.714
  181EMI    H0E 3439   3.452   0.832   4.571
  182EMI    C01 3440   3.636   4.788   3.081
  182EMI    C04 3441   3.425   4.718   3.117
  182EMI    C03 3442   3.505   4.614   3.140
  182EMI    H07 3443   3.721   4.849   3.058
  182EMI    H09 3444   3.318   4.720   3.125
  182EMI    H08 3445   3.476   4.515   3.169
  182EMI    C05 3446   3.764   4.582   3.128
  182EMI    H0B 3447   3.845   4.645   3.157
  182EMI    H0C 3448   3.750   4.506   3.203
  182EMI    H0D 3449   3.786   4.535   3.034
  182EMI    N00 3450   3.642   4.662   3.116
  182EMI    C06 3451   3.468   4.966   3.045
  182EMI    H0F 3452   3.450   4.972   2.940
  182EMI    C0N 3453   3.339   4.998   3.122
  182EMI    H0O 3454   3.306   5.097   3.097
  182EMI    H0P 3455   3.262   4.928   3.095
  182EMI    H0Q 3456   3.357   4.992   3.227
  182EMI    N02 3457   3.512   4.830   3.079
  182EMI    H0E 3458   3.544   5.036   3.072
  183EMI    C01 3459   2.390   4.540   0.432
  183EMI    C04 3460   2.266   4.360   0.374
  183EMI    C03 3461   2.232   4.460   0.291
  183EMI    H07 3462   2.460   4.604   0.481
  183EMI    H09 3463   2.227   4.261   0.374
  183EMI    H08 3464   2.160   4.456   0.213
  183EMI    C05 3465   2.311   4.708   0.268
  183EMI    H0B 3466   2.407   4.753   0.277
  183EMI    H0C 3467   2.285   4.698   0.165
  183EMI    H0D 3468   2.238   4.769   0.318
  183EMI    N00 3469   2.314   4.575   0.331
  183EMI    C06 3470   2.436   4.341   0.571
  183EMI    H0F 3471   2.380   4.352   0.662
  183EMI    C0N 3472   2.444   4.192   0.534
  183EMI    H0O 3473   2.494   4.138   0.613
  183EMI    H0P 3474   2.346   4.153   0.521
  183EMI    H0Q 3475   2.500   4.181   0.443
  183EMI    N02 3476   2.368   4.415   0.463
  183EMI    H0E 3477   2.534   4.380   0.585
  184EMI    C01 3478   0.220   0.716   2.293
  184EMI    C04 3479   0.381   0.657   2.439
  184EMI    C03 3480   0.363   0.553   2.356
  184EMI    H07 3481   0.144   0.771   2.241
  184EMI    H09 3482   0.451   0.663   2.520
  184EMI    H08 3483   0.414   0.460   2.358
  184EMI    C05 3484   0.204   0.512   2.153
  184EMI    H0B 3485   0.171   0.576   2.074
  184EMI    H0C 3486   0.280   0.446   2.118
  184EMI    H0D 3487   0.121   0.455   2.189
  184EMI    N00 3488   0.258   0.594   2.263
  184EMI    C06 3489   0.272   0.893   2.457
  184EMI    H0F 3490   0.198   0.888   2.534
  184EMI    C0N 3491   0.406   0.938   2.517
  184EMI    H0O 3492   0.395   1.035   2.562
  184EMI    H0P 3493   0.438   0.868   2.591
  184EMI    H0Q 3494   0.480   0.943   2.439
  184EMI    N02 3495   0.287   0.761   2.395
  184EMI    H0E 3496   0.241   0.964   2.382
  185EMI    C01 3497   2.206   1.178   0.594
  185EMI    C04 3498   2.383   1.215   0.729
  185EMI    C03 3499   2.278   1.190   0.808
  185EMI    H07 3500   2.145   1.166   0.507
  185EMI    H09 3501   2.483   1.237   0.760
  185EMI    H08 3502   2.276   1.188   0.914
  185EMI    C05 3503   2.027   1.135   0.759
  185EMI    H0B 3504   1.981   1.075   0.684
  185EMI    H0C 3505   2.029   1.082   0.852
  185EMI    H0D 3506   1.972   1.226   0.771
  185EMI    N00 3507   2.165   1.167   0.717
  185EMI    C06 3508   2.415   1.227   0.470
  185EMI    H0F 3509   2.412   1.331   0.443
  185EMI    C0N 3510   2.560   1.185   0.498
  185EMI    H0O 3511   2.619   1.200   0.409
  185EMI    H0P 3512   2.600   1.244   0.577
  185EMI    H0Q 3513   2.562   1.082   0.525
  185EMI    N02 3514   2.334   1.207   0.591
  185EMI    H0E 3515   2.375   1.168   0.390
  186EMI    C01 3516   3.158   4.362   4.473
  186EMI    C04 3517   2.935   4.324   4.468
  186EMI    C03 3518   2.993   4.214   4.519
  186EMI    H07 3519   3.254   4.408   4.463
  186EMI    H09 3520   2.831   4.340   4.451
  186EMI    H08 3521   2.944   4.125   4.551
  186EMI    C05 3522   3.241   4.150   4.569
  186EMI    H0B 3523   3.323   4.206   4.608
  186EMI    H0C 3524   3.200   4.088   4.646
  186EMI    H0D 3525   3.275   4.089   4.488
  186EMI    N00 3526   3.137   4.242   4.521
  186EMI    C06 3527   3.029   4.552   4.382
  186EMI    H0F 3528   3.034   4.546   4.275
  186EMI    C0N 3529   2.892   4.610   4.424
  186EMI    H0O 3530   2.881   4.708   4.382
  186EMI    H0P 3531   2.814   4.547   4.388
  186EMI    H0Q 3532   2.887   4.616   4.530
  186EMI    N02 3533   3.044   4.418   4.439
  186EMI    H0E 3534   3.107   4.615   4.418
  187EMI    C01 3535   2.624   3.403   0.813
  187EMI    C04 3536   2.676   3.620   0.784
  187EMI    C03 3537   2.780   3.548   0.740
  187EMI    H07 3538   2.572   3.313   0.838
  187EMI    H09 3539   2.668   3.727   0.785
  187EMI    H08 3540   2.871   3.586   0.698
  187EMI    C05 3541   2.827   3.292   0.725
  187EMI    H0B 3542   2.764   3.209   0.700
  187EMI    H0C 3543   2.889   3.316   0.642
  187EMI    H0D 3544   2.888   3.266   0.809
  187EMI    N00 3545   2.743   3.408   0.760
  187EMI    C06 3546   2.446   3.557   0.889
  187EMI    H0F 3547   2.455   3.567   0.995
  187EMI    C0N 3548   2.395   3.689   0.828
  187EMI    H0O 3549   2.300   3.713   0.870
  187EMI    H0P 3550   2.465   3.767   0.851
  187EMI    H0Q 3551   2.386   3.679   0.722
  187EMI    N02 3552   2.577   3.523   0.831
  187EMI    H0E 3553   2.376   3.478   0.866
  188EMI    C01 3554   2.024   4.176   0.378
  188EMI    C04 3555   1.943   4.179   0.167
  188EMI    C03 3556   2.031   4.078   0.175
  188EMI    H07 3557   2.042   4.200   0.481
  188EMI    H09 3558   1.886   4.208   0.082
  188EMI    H08 3559   2.059   4.011   0.096
  188EMI    C05 3560   2.181   3.986   0.367
  188EMI    H0B 3561   2.163   3.973   0.472
  188EMI    H0C 3562   2.174   3.892   0.317
  188EMI    H0D 3563   2.279   4.027   0.353
  188EMI    N00 3564   2.082   4.079   0.312
  188EMI    C06 3565   1.857   4.355   0.340
  188EMI    H0F 3566   1.911   4.446   0.322
  188EMI    C0N 3567   1.727   4.355   0.257
  188EMI    H0O 3568   1.667   4.439   0.286
  188EMI    H0P 3569   1.751   4.363   0.153
  188EMI    H0Q 3570   1.673   4.265   0.275
  188EMI    N02 3571   1.940   4.240   0.300
  188EMI    H0E 3572   1.834   4.348   0.444
  189EMI    C01 3573   0.884   0.570   2.271
  189EMI    C04 3574   0.659   0.579   2.281
  189EMI    C03 3575   0.694   0.451   2.294
  189EMI    H07 3576   0.987   0.598   2.262
  189EMI    H09 3577   0.559   0.619   2.282
  189EMI    H08 3578   0.629   0.367   2.307
  189EMI    C05 3579   0.924   0.328   2.296
  189EMI    H0B 3580   1.019   0.354   2.339
  189EMI    H0C 3581   0.875   0.255   2.357
  189EMI    H0D 3582   0.940   0.287   2.198
  189EMI    N00 3583   0.840   0.448   2.287
  189EMI    C06 3584   0.795   0.800   2.250
  189EMI    H0F 3585   0.792   0.824   2.146
  189EMI    C0N 3586   0.677   0.869   2.321
  189EMI    H0O 3587   0.685   0.975   2.309
  189EMI    H0P 3588   0.585   0.835   2.279
  189EMI    H0Q 3589   0.679   0.845   2.425
  189EMI    N02 3590   0.784   0.654   2.267
  189EMI    H0E 3591   0.887   0.834   2.292
  190EMI    C01 3592   3.815   1.151   1.529
  190EMI    C04 3593   3.661   1.308   1.476
  190EMI    C03 3594   3.780   1.369   1.481
  190EMI    H07 3595   3.862   1.059   1.554
  190EMI    H09 3596   3.567   1.353   1.453
  190EMI    H08 3597   3.800   1.473   1.464
  190EMI    C05 3598   4.022   1.286   1.534
  190EMI    H0B 3599   4.074   1.197   1.507
  190EMI    H0C 3600   4.054   1.367   1.471
  190EMI    H0D 3601   4.042   1.310   1.636
  190EMI    N00 3602   3.877   1.266   1.516
  190EMI    C06 3603   3.585   1.061   1.512
  190EMI    H0F 3604   3.546   1.054   1.612
  190EMI    C0N 3605   3.471   1.094   1.414
  190EMI    H0O 3606   3.398   1.016   1.418
  190EMI    H0P 3607   3.427   1.187   1.441
  190EMI    H0Q 3608   3.511   1.100   1.315
  190EMI    N02 3609   3.687   1.167   1.507
  190EMI    H0E 3610   3.630   0.967   1.485
  191EMI    C01 3611   1.643   4.385   4.273
  191EMI    C04 3612   1.668   4.581   4.382
  191EMI    C03 3613   1.788   4.522   4.378
  191EMI    H07 3614   1.600   4.302   4.220
  191EMI    H09 3615   1.644   4.675   4.426
  191EMI    H08 3616   1.879   4.560   4.419
  191EMI    C05 3617   1.873   4.296   4.279
  191EMI    H0B 3618   1.850   4.244   4.188
  191EMI    H0C 3619   1.967   4.346   4.269
  191EMI    H0D 3620   1.878   4.226   4.360
  191EMI    N00 3621   1.768   4.395   4.307
  191EMI    C06 3622   1.432   4.513   4.292
  191EMI    H0F 3623   1.377   4.473   4.375
  191EMI    C0N 3624   1.405   4.664   4.282
  191EMI    H0O 3625   1.301   4.681   4.267
  191EMI    H0P 3626   1.436   4.712   4.373
  191EMI    H0Q 3627   1.460   4.705   4.200
  191EMI    N02 3628   1.576   4.490   4.313
  191EMI    H0E 3629   1.401   4.465   4.202
  192EMI    C01 3630   3.741   0.320   4.108
  192EMI    C04 3631   3.617   0.471   3.995
  192EMI    C03 3632   3.695   0.408   3.906
  192EMI    H07 3633   3.783   0.261   4.187
  192EMI    H09 3634   3.546   0.548   3.975
  192EMI    H08 3635   3.699   0.425   3.800
  192EMI    C05 3636   3.874   0.219   3.926
  192EMI    H0B 3637   3.878   0.130   3.986
  192EMI    H0C 3638   3.847   0.194   3.826
  192EMI    H0D 3639   3.970   0.267   3.927
  192EMI    N00 3640   3.774   0.311   3.982
  192EMI    C06 3641   3.588   0.449   4.253
  192EMI    H0F 3642   3.645   0.528   4.298
  192EMI    C0N 3643   3.444   0.498   4.229
  192EMI    H0O 3644   3.399   0.525   4.322
  192EMI    H0P 3645   3.445   0.583   4.164
  192EMI    H0Q 3646   3.387   0.419   4.184
  192EMI    N02 3647   3.649   0.412   4.125
  192EMI    H0E 3648   3.587   0.364   4.318
  193EMI    C01 3649   3.163   4.315   0.191
  193EMI    C04 3650   2.978   4.433   0.244
  193EMI    C03 3651   2.946   4.303   0.252
  193EMI    H07 3652   3.263   4.289   0.162
  193EMI    H09 3653   2.913   4.516   0.263
  193EMI    H08 3654   2.851   4.262   0.279
  193EMI    C05 3655   3.081   4.083   0.213
  193EMI    H0B 3656   3.182   4.056   0.236
  193EMI    H0C 3657   3.014   4.039   0.284
  193EMI    H0D 3658   3.057   4.048   0.114
  193EMI    N00 3659   3.068   4.230   0.217
  193EMI    C06 3660   3.197   4.560   0.182
  193EMI    H0F 3661   3.189   4.590   0.080
  193EMI    C0N 3662   3.144   4.672   0.274
  193EMI    H0O 3663   3.201   4.761   0.258
  193EMI    H0P 3664   3.041   4.691   0.250
  193EMI    H0Q 3665   3.153   4.642   0.376
  193EMI    N02 3666   3.119   4.438   0.204
  193EMI    H0E 3667   3.300   4.541   0.205
  194EMI    C01 3668   4.320   2.788   3.677
  194EMI    C04 3669   4.114   2.755   3.763
  194EMI    C03 3670   4.161   2.868   3.815
  194EMI    H07 3671   4.411   2.776   3.621
  194EMI    H09 3672   4.019   2.709   3.782
  194EMI    H08 3673   4.111   2.933   3.885
  194EMI    C05 3674   4.385   3.000   3.786
  194EMI    H0B 3675   4.446   3.019   3.700
  194EMI    H0C 3676   4.327   3.087   3.809
  194EMI    H0D 3677   4.447   2.975   3.870
  194EMI    N00 3678   4.294   2.887   3.758
  194EMI    C06 3679   4.212   2.581   3.594
  194EMI    H0F 3680   4.251   2.500   3.651
  194EMI    C0N 3681   4.066   2.553   3.556
  194EMI    H0O 3682   4.061   2.463   3.498
  194EMI    H0P 3683   4.008   2.541   3.646
  194EMI    H0Q 3684   4.027   2.634   3.499
  194EMI    N02 3685   4.219   2.705   3.674
  194EMI    H0E 3686   4.270   2.593   3.505
  195EMI    C01 3687   1.509   3.394   1.707
  195EMI    C04 3688   1.669   3.400   1.866
  195EMI    C03 3689   1.571   3.482   1.905
  195EMI    H07 3690   1.454   3.370   1.618
  195EMI    H09 3691   1.760   3.380   1.918
  195EMI    H08 3692   1.567   3.540   1.995
  195EMI    C05 3693   1.342   3.550   1.800
  195EMI    H0B 3694   1.268   3.494   1.747
  195EMI    H0C 3695   1.309   3.566   1.901
  195EMI    H0D 3696   1.356   3.644   1.752
  195EMI    N00 3697   1.469   3.476   1.800
  195EMI    C06 3698   1.703   3.249   1.656
  195EMI    H0F 3699   1.766   3.302   1.589
  195EMI    C0N 3700   1.789   3.160   1.749
  195EMI    H0O 3701   1.845   3.091   1.689
  195EMI    H0P 3702   1.857   3.222   1.804
  195EMI    H0Q 3703   1.726   3.107   1.816
  195EMI    N02 3704   1.627   3.344   1.738
  195EMI    H0E 3705   1.635   3.187   1.601
  196EMI    C01 3706   0.478   2.075   0.189
  196EMI    C04 3707   0.255   2.045   0.212
  196EMI    C03 3708   0.276   2.175   0.186
  196EMI    H07 3709   0.583   2.057   0.184
  196EMI    H09 3710   0.161   1.997   0.229
  196EMI    H08 3711   0.201   2.251   0.177
  196EMI    C05 3712   0.490   2.317   0.142
  196EMI    H0B 3713   0.580   2.296   0.088
  196EMI    H0C 3714   0.426   2.380   0.084
  196EMI    H0D 3715   0.515   2.366   0.234
  196EMI    N00 3716   0.421   2.191   0.172
  196EMI    C06 3717   0.416   1.841   0.238
  196EMI    H0F 3718   0.430   1.825   0.343
  196EMI    C0N 3719   0.296   1.756   0.189
  196EMI    H0O 3720   0.316   1.652   0.208
  196EMI    H0P 3721   0.208   1.785   0.242
  196EMI    H0Q 3722   0.282   1.772   0.085
  196EMI    N02 3723   0.388   1.983   0.214
  196EMI    H0E 3724   0.504   1.812   0.185
  197EMI    C01 3725   4.734   2.435   1.459
  197EMI    C04 3726   4.710   2.576   1.284
  197EMI    C03 3727   4.818   2.615   1.352
  197EMI    H07 3728   4.719   2.355   1.528
  197EMI    H09 3729   4.669   2.621   1.196
  197EMI    H08 3730   4.882   2.698   1.329
  197EMI    C05 3731   4.937   2.526   1.567
  197EMI    H0B 3732   4.956   2.426   1.602
  197EMI    H0C 3733   5.026   2.566   1.524
  197EMI    H0D 3734   4.905   2.587   1.649
  197EMI    N00 3735   4.831   2.522   1.464
  197EMI    C06 3736   4.538   2.382   1.317
  197EMI    H0F 3737   4.452   2.424   1.365
  197EMI    C0N 3738   4.520   2.388   1.164
  197EMI    H0O 3739   4.433   2.332   1.137
  197EMI    H0P 3740   4.508   2.490   1.134
  197EMI    H0Q 3741   4.606   2.347   1.117
  197EMI    N02 3742   4.657   2.459   1.356
  197EMI    H0E 3743   4.550   2.281   1.348
  198EMI    C01 3744   3.696   0.701   0.431
  198EMI    C04 3745   3.603   0.510   0.354
  198EMI    C03 3746   3.666   0.480   0.468
  198EMI    H07 3747   3.726   0.803   0.440
  198EMI    H09 3748   3.549   0.443   0.291
  198EMI    H08 3749   3.672   0.385   0.515
  198EMI    C05 3750   3.804   0.622   0.638
  198EMI    H0B 3751   3.790   0.721   0.677
  198EMI    H0C 3752   3.771   0.551   0.711
  198EMI    H0D 3753   3.907   0.606   0.617
  198EMI    N00 3754   3.725   0.606   0.515
  198EMI    C06 3755   3.573   0.731   0.218
  198EMI    H0F 3756   3.645   0.730   0.139
  198EMI    C0N 3757   3.441   0.669   0.168
  198EMI    H0O 3758   3.404   0.726   0.086
  198EMI    H0P 3759   3.459   0.568   0.138
  198EMI    H0Q 3760   3.369   0.670   0.248
  198EMI    N02 3761   3.624   0.654   0.332
  198EMI    H0E 3762   3.556   0.832   0.249
  199EMI    C01 3763   3.890   0.457   2.160
  199EMI    C04 3764   4.009   0.560   1.997
  199EMI    C03 3765   3.991   0.649   2.096
  199EMI    H07 3766   3.836   0.384   2.215
  199EMI    H09 3767   4.061   0.576   1.905
  199EMI    H08 3768   4.026   0.750   2.099
  199EMI    C05 3769   3.871   0.638   2.327
  199EMI    H0B 3770   3.865   0.561   2.401
  199EMI    H0C 3771   3.941   0.712   2.358
  199EMI    H0D 3772   3.774   0.682   2.315
  199EMI    N00 3773   3.914   0.579   2.200
  199EMI    C06 3774   3.936   0.312   1.965
  199EMI    H0F 3775   3.848   0.312   1.903
  199EMI    C0N 3776   4.061   0.299   1.876
  199EMI    H0O 3777   4.056   0.208   1.821
  199EMI    H0P 3778   4.065   0.382   1.809
  199EMI    H0Q 3779   4.148   0.298   1.938
  199EMI    N02 3780   3.942   0.437   2.041
  199EMI    H0E 3781   3.931   0.229   2.033
  200EMI    C01 3782   2.922   4.410   3.006
  200EMI    C04 3783   2.985   4.248   2.861
  200EMI    C03 3784   3.030   4.213   2.982
  200EMI    H07 3785   2.879   4.498   3.047
  200EMI    H09 3786   2.997   4.194   2.770
  200EMI    H08 3787   3.086   4.125   3.007
  200EMI    C05 3788   3.015   4.324   3.218
  200EMI    H0B 3789   2.936   4.376   3.267
  200EMI    H0C 3790   3.021   4.224   3.256
  200EMI    H0D 3791   3.107   4.375   3.235
  200EMI    N00 3792   2.988   4.319   3.073
  200EMI    C06 3793   2.849   4.453   2.773
  200EMI    H0F 3794   2.919   4.521   2.730
  200EMI    C0N 3795   2.797   4.357   2.665
  200EMI    H0O 3796   2.749   4.413   2.588
  200EMI    H0P 3797   2.879   4.302   2.623
  200EMI    H0Q 3798   2.727   4.289   2.708
  200EMI    N02 3799   2.915   4.376   2.879
  200EMI    H0E 3800   2.767   4.508   2.815
  201EMI    C01 3801   2.229   2.760   0.357
  201EMI    C04 3802   2.199   2.941   0.489
  201EMI    C03 3803   2.170   2.978   0.363
  201EMI    H07 3804   2.251   2.661   0.323
  201EMI    H09 3805   2.195   3.002   0.576
  201EMI    H08 3806   2.139   3.075   0.330
  201EMI    C05 3807   2.171   2.852   0.135
  201EMI    H0B 3808   2.141   2.752   0.108
  201EMI    H0C 3809   2.095   2.921   0.106
  201EMI    H0D 3810   2.262   2.876   0.085
  201EMI    N00 3811   2.190   2.859   0.280
  201EMI    C06 3812   2.276   2.716   0.595
  201EMI    H0F 3813   2.382   2.722   0.609
  201EMI    C0N 3814   2.206   2.765   0.723
  201EMI    H0O 3815   2.235   2.704   0.806
  201EMI    H0P 3816   2.233   2.867   0.742
  201EMI    H0Q 3817   2.100   2.759   0.709
  201EMI    N02 3818   2.236   2.799   0.481
  201EMI    H0E 3819   2.249   2.614   0.576
  202EMI    C01 3820   3.499   1.279   5.032
  202EMI    C04 3821   3.596   1.081   4.985
  202EMI    C03 3822   3.694   1.169   5.006
  202EMI    H07 3823   3.427   1.356   5.050
  202EMI    H09 3824   3.606   0.977   4.961
  202EMI    H08 3825   3.799   1.150   5.001
  202EMI    C05 3826   3.698   1.423   5.065
  202EMI    H0B 3827   3.637   1.482   5.131
  202EMI    H0C 3828   3.792   1.402   5.112
  202EMI    H0D 3829   3.714   1.476   4.974
  202EMI    N00 3830   3.629   1.296   5.036
  202EMI    C06 3831   3.335   1.099   4.990
  202EMI    H0F 3832   3.302   1.109   4.889
  202EMI    C0N 3833   3.337   0.950   5.030
  202EMI    H0O 3834   3.239   0.910   5.020
  202EMI    H0P 3835   3.404   0.897   4.965
  202EMI    H0Q 3836   3.370   0.941   5.131
  202EMI    N02 3837   3.471   1.155   5.003
  202EMI    H0E 3838   3.269   1.152   5.054
  203EMI    C01 3839   1.544   4.919   4.676
  203EMI    C04 3840   1.690   4.747   4.657
  203EMI    C03 3841   1.568   4.698   4.631
  203EMI    H07 3842   1.502   5.016   4.691
  203EMI    H09 3843   1.782   4.693   4.657
  203EMI    H08 3844   1.542   4.597   4.607
  203EMI    C05 3845   1.330   4.806   4.624
  203EMI    H0B 3846   1.295   4.901   4.588
  203EMI    H0C 3847   1.306   4.730   4.553
  203EMI    H0D 3848   1.282   4.784   4.718
  203EMI    N00 3849   1.476   4.812   4.644
  203EMI    C06 3850   1.778   4.985   4.719
  203EMI    H0F 3851   1.792   4.987   4.825
  203EMI    C0N 3852   1.909   4.940   4.652
  203EMI    H0O 3853   1.987   5.010   4.676
  203EMI    H0P 3854   1.936   4.843   4.686
  203EMI    H0Q 3855   1.896   4.938   4.545
  203EMI    N02 3856   1.671   4.890   4.685
  203EMI    H0E 3857   1.751   5.082   4.685
  204EMI    C01 3858   4.289   0.989   3.819
  204EMI    C04 3859   4.501   0.969   3.892
  204EMI    C03 3860   4.473   0.859   3.821
  204EMI    H07 3861   4.190   1.027   3.800
  204EMI    H09 3862   4.594   0.992   3.940
  204EMI    H08 3863   4.537   0.776   3.802
  204EMI    C05 3864   4.259   0.778   3.694
  204EMI    H0B 3865   4.188   0.830   3.633
  204EMI    H0C 3866   4.327   0.724   3.631
  204EMI    H0D 3867   4.208   0.710   3.758
  204EMI    N00 3868   4.334   0.875   3.775
  204EMI    C06 3869   4.365   1.183   3.953
  204EMI    H0F 3870   4.328   1.170   4.052
  204EMI    C0N 3871   4.501   1.254   3.958
  204EMI    H0O 3872   4.490   1.350   4.004
  204EMI    H0P 3873   4.571   1.195   4.014
  204EMI    H0Q 3874   4.538   1.267   3.858
  204EMI    N02 3875   4.381   1.051   3.888
  204EMI    H0E 3876   4.296   1.242   3.897
  205EMI    C01 3877   2.697   1.054   1.071
  205EMI    C04 3878   2.712   1.145   0.865
  205EMI    C03 3879   2.685   1.245   0.950
  205EMI    H07 3880   2.697   0.985   1.152
  205EMI    H09 3881   2.725   1.153   0.759
  205EMI    H08 3882   2.673   1.348   0.926
  205EMI    C05 3883   2.649   1.254   1.208
  205EMI    H0B 3884   2.697   1.203   1.289
  205EMI    H0C 3885   2.686   1.354   1.202
  205EMI    H0D 3886   2.543   1.257   1.226
  205EMI    N00 3887   2.677   1.183   1.083
  205EMI    C06 3888   2.746   0.888   0.895
  205EMI    H0F 3889   2.654   0.840   0.869
  205EMI    C0N 3890   2.836   0.897   0.770
  205EMI    H0O 3891   2.856   0.799   0.733
  205EMI    H0P 3892   2.786   0.954   0.695
  205EMI    H0Q 3893   2.928   0.945   0.796
  205EMI    N02 3894   2.719   1.023   0.946
  205EMI    H0E 3895   2.796   0.831   0.971
  206EMI    C01 3896   3.345   4.287   1.754
  206EMI    C04 3897   3.345   4.277   1.529
  206EMI    C03 3898   3.241   4.204   1.572
  206EMI    H07 3899   3.371   4.310   1.855
  206EMI    H09 3900   3.374   4.293   1.427
  206EMI    H08 3901   3.171   4.150   1.512
  206EMI    C05 3902   3.149   4.148   1.810
  206EMI    H0B 3903   3.139   4.207   1.898
  206EMI    H0C 3904   3.053   4.139   1.762
  206EMI    H0D 3905   3.184   4.051   1.836
  206EMI    N00 3906   3.244   4.213   1.718
  206EMI    C06 3907   3.529   4.415   1.651
  206EMI    H0F 3908   3.617   4.354   1.655
  206EMI    C0N 3909   3.533   4.501   1.523
  206EMI    H0O 3910   3.619   4.564   1.524
  206EMI    H0P 3911   3.536   4.437   1.437
  206EMI    H0Q 3912   3.445   4.562   1.519
  206EMI    N02 3913   3.410   4.329   1.649
  206EMI    H0E 3914   3.526   4.479   1.736
  207EMI    C01 3915   4.030   2.348   4.362
  207EMI    C04 3916   4.208   2.446   4.461
  207EMI    C03 3917   4.112   2.435   4.554
  207EMI    H07 3918   3.965   2.303   4.290
  207EMI    H09 3919   4.305   2.488   4.474
  207EMI    H08 3920   4.118   2.465   4.656
  207EMI    C05 3921   3.870   2.338   4.550
  207EMI    H0B 3922   3.827   2.252   4.502
  207EMI    H0C 3923   3.885   2.317   4.654
  207EMI    H0D 3924   3.803   2.421   4.540
  207EMI    N00 3925   3.998   2.371   4.487
  207EMI    C06 3926   4.221   2.380   4.209
  207EMI    H0F 3927   4.202   2.469   4.152
  207EMI    C0N 3928   4.372   2.366   4.232
  207EMI    H0O 3929   4.423   2.359   4.138
  207EMI    H0P 3930   4.408   2.451   4.286
  207EMI    H0Q 3931   4.391   2.277   4.289
  207EMI    N02 3932   4.152   2.389   4.338
  207EMI    H0E 3933   4.185   2.295   4.155
  208EMI    C01 3934   3.444   1.381   3.566
  208EMI    C04 3935   3.482   1.271   3.760
  208EMI    C03 3936   3.455   1.179   3.667
  208EMI    H07 3937   3.432   1.458   3.493
  208EMI    H09 3938   3.505   1.254   3.863
  208EMI    H08 3939   3.452   1.073   3.680
  208EMI    C05 3940   3.398   1.193   3.413
  208EMI    H0B 3941   3.436   1.255   3.334
  208EMI    H0C 3942   3.442   1.096   3.406
  208EMI    H0D 3943   3.292   1.184   3.403
  208EMI    N00 3944   3.431   1.253   3.543
  208EMI    C06 3945   3.497   1.532   3.755
  208EMI    H0F 3946   3.404   1.570   3.793
  208EMI    C0N 3947   3.597   1.517   3.871
  208EMI    H0O 3948   3.613   1.612   3.917
  208EMI    H0P 3949   3.557   1.448   3.943
  208EMI    H0Q 3950   3.690   1.479   3.833
  208EMI    N02 3951   3.474   1.401   3.692
  208EMI    H0E 3952   3.536   1.600   3.682
  209EMI    C01 3953   3.445   2.080   2.362
  209EMI    C04 3954   3.534   1.920   2.494
  209EMI    C03 3955   3.478   1.858   2.389
  209EMI    H07 3956   3.416   2.175   2.323
  209EMI    H09 3957   3.584   1.873   2.576
  209EMI    H08 3958   3.475   1.753   2.370
  209EMI    C05 3959   3.350   1.945   2.179
  209EMI    H0B 3960   3.365   2.030   2.115
  209EMI    H0C 3961   3.387   1.857   2.130
  209EMI    H0D 3962   3.245   1.933   2.198
  209EMI    N00 3963   3.422   1.965   2.306
  209EMI    C06 3964   3.555   2.170   2.565
  209EMI    H0F 3965   3.479   2.189   2.637
  209EMI    C0N 3966   3.684   2.127   2.637
  209EMI    H0O 3967   3.716   2.205   2.703
  209EMI    H0P 3968   3.665   2.038   2.693
  209EMI    H0Q 3969   3.761   2.107   2.565
  209EMI    N02 3970   3.511   2.063   2.474
  209EMI    H0E 3971   3.574   2.259   2.508
  210EMI    C01 3972   2.938   3.829   0.772
  210EMI    C04 3973   2.746   3.949   0.771
  210EMI    C03 3974   2.769   3.911   0.897
  210EMI    H07 3975   3.027   3.779   0.741
  210EMI    H09 3976   2.664   4.008   0.735
  210EMI    H08 3977   2.708   3.933   0.983
  210EMI    C05 3978   2.957   3.771   1.011
  210EMI    H0B 3979   3.063   3.768   0.996
  210EMI    H0C 3980   2.935   3.829   1.099
  210EMI    H0D 3981   2.920   3.672   1.023
  210EMI    N00 3982   2.893   3.834   0.895
  210EMI    C06 3983   2.875   3.911   0.547
  210EMI    H0F 3984   2.827   3.831   0.496
  210EMI    C0N 3985   2.814   4.045   0.503
  210EMI    H0O 3986   2.827   4.057   0.397
  210EMI    H0P 3987   2.709   4.046   0.526
  210EMI    H0Q 3988   2.862   4.126   0.554
  210EMI    N02 3989   2.857   3.895   0.692
  210EMI    H0E 3990   2.980   3.911   0.524
  211EMI    C01 3991   2.037   2.423   2.988
  211EMI    C04 3992   2.067   2.539   3.179
  211EMI    C03 3993   2.050   2.411   3.213
  211EMI    H07 3994   2.026   2.397   2.885
  211EMI    H09 3995   2.084   2.622   3.245
  211EMI    H08 3996   2.050   2.370   3.312
  211EMI    C05 3997   2.007   2.194   3.075
  211EMI    H0B 3998   2.046   2.159   2.982
  211EMI    H0C 3999   2.055   2.143   3.156
  211EMI    H0D 4000   1.902   2.174   3.079
  211EMI    N00 4001   2.030   2.338   3.087
  211EMI    C06 4002   2.072   2.665   2.950
  211EMI    H0F 4003   1.975   2.709   2.936
  211EMI    C0N 4004   2.165   2.765   3.020
  211EMI    H0O 4005   2.175   2.853   2.959
  211EMI    H0P 4006   2.125   2.791   3.115
  211EMI    H0Q 4007   2.262   2.720   3.033
  211EMI    N02 4008   2.058   2.544   3.033
  211EMI    H0E 4009   2.112   2.638   2.854
  212EMI    C01 4010   1.121   0.706   4.919
  212EMI    C04 4011   0.911   0.777   4.961
  212EMI    C03 4012   0.911   0.644   4.974
  212EMI    H07 4013   1.225   0.704   4.895
  212EMI    H09 4014   0.827   0.842   4.974
  212EMI    H08 4015   0.829   0.581   5.000
  212EMI    C05 4016   1.097   0.462   4.949
  212EMI    H0B 4017   1.201   0.461   4.977
  212EMI    H0C 4018   1.040   0.406   5.020
  212EMI    H0D 4019   1.086   0.419   4.852
  212EMI    N00 4020   1.049   0.601   4.947
  212EMI    C06 4021   1.095   0.951   4.901
  212EMI    H0F 4022   1.084   0.975   4.797
  212EMI    C0N 4023   1.013   1.050   4.985
  212EMI    H0O 4024   1.047   1.150   4.967
  212EMI    H0P 4025   0.909   1.043   4.958
  212EMI    H0Q 4026   1.024   1.027   5.089
  212EMI    N02 4027   1.048   0.815   4.925
  212EMI    H0E 4028   1.199   0.959   4.928
  213EMI    C01 4029   0.409   2.376   2.598
  213EMI    C04 4030   0.237   2.519   2.566
  213EMI    C03 4031   0.204   2.403   2.507
  213EMI    H07 4032   0.502   2.333   2.629
  213EMI    H09 4033   0.178   2.608   2.570
  213EMI    H08 4034   0.114   2.382   2.454
  213EMI    C05 4035   0.326   2.174   2.482
  213EMI    H0B 4036   0.386   2.117   2.550
  213EMI    H0C 4037   0.228   2.132   2.477
  213EMI    H0D 4038   0.371   2.172   2.385
  213EMI    N00 4039   0.317   2.313   2.529
  213EMI    C06 4040   0.447   2.598   2.700
  213EMI    H0F 4041   0.508   2.654   2.632
  213EMI    C0N 4042   0.350   2.693   2.772
  213EMI    H0O 4043   0.406   2.766   2.827
  213EMI    H0P 4044   0.288   2.743   2.700
  213EMI    H0Q 4045   0.289   2.637   2.840
  213EMI    N02 4046   0.370   2.498   2.624
  213EMI    H0E 4047   0.509   2.548   2.771
  214EMI    C01 4048   2.541   1.170   1.633
  214EMI    C04 4049   2.347   1.112   1.534
  214EMI    C03 4050   2.320   1.213   1.617
  214EMI    H07 4051   2.644   1.174   1.662
  214EMI    H09 4052   2.277   1.059   1.471
  214EMI    H08 4053   2.224   1.259   1.634
  214EMI    C05 4054   2.466   1.356   1.779
  214EMI    H0B 4055   2.566   1.395   1.769
  214EMI    H0C 4056   2.395   1.434   1.761
  214EMI    H0D 4057   2.453   1.316   1.877
  214EMI    N00 4058   2.447   1.249   1.680
  214EMI    C06 4059   2.566   0.983   1.474
  214EMI    H0F 4060   2.566   0.892   1.531
  214EMI    C0N 4061   2.499   0.957   1.337
  214EMI    H0O 4062   2.554   0.882   1.284
  214EMI    H0P 4063   2.399   0.924   1.352
  214EMI    H0Q 4064   2.499   1.048   1.280
  214EMI    N02 4065   2.490   1.086   1.547
  214EMI    H0E 4066   2.666   1.015   1.459
  215EMI    C01 4067   1.547   3.338   0.211
  215EMI    C04 4068   1.546   3.561   0.175
  215EMI    C03 4069   1.669   3.517   0.147
  215EMI    H07 4070   1.516   3.239   0.236
  215EMI    H09 4071   1.511   3.662   0.168
  215EMI    H08 4072   1.753   3.575   0.114
  215EMI    C05 4073   1.780   3.280   0.155
  215EMI    H0B 4074   1.744   3.183   0.128
  215EMI    H0C 4075   1.845   3.317   0.078
  215EMI    H0D 4076   1.835   3.274   0.247
  215EMI    N00 4077   1.667   3.372   0.172
  215EMI    C06 4078   1.327   3.443   0.255
  215EMI    H0F 4079   1.320   3.459   0.361
  215EMI    C0N 4080   1.253   3.556   0.181
  215EMI    H0O 4081   1.150   3.556   0.210
  215EMI    H0P 4082   1.297   3.650   0.207
  215EMI    H0Q 4083   1.261   3.540   0.076
  215EMI    N02 4084   1.469   3.443   0.216
  215EMI    H0E 4085   1.283   3.349   0.230
  216EMI    C01 4086   1.681   4.309   1.966
  216EMI    C04 4087   1.457   4.339   1.957
  216EMI    C03 4088   1.514   4.458   1.933
  216EMI    H07 4089   1.778   4.265   1.976
  216EMI    H09 4090   1.353   4.317   1.961
  216EMI    H08 4091   1.464   4.550   1.913
  216EMI    C05 4092   1.762   4.538   1.918
  216EMI    H0B 4093   1.850   4.492   1.877
  216EMI    H0C 4094   1.726   4.612   1.851
  216EMI    H0D 4095   1.786   4.583   2.012
  216EMI    N00 4096   1.659   4.435   1.939
  216EMI    C06 4097   1.553   4.102   2.009
  216EMI    H0F 4098   1.549   4.088   2.115
  216EMI    C0N 4099   1.424   4.048   1.944
  216EMI    H0O 4100   1.413   3.944   1.966
  216EMI    H0P 4101   1.340   4.102   1.984
  216EMI    H0Q 4102   1.428   4.062   1.838
  216EMI    N02 4103   1.568   4.245   1.978
  216EMI    H0E 4104   1.637   4.049   1.969
  217EMI    C01 4105   2.433   2.371   3.703
  217EMI    C04 4106   2.619   2.330   3.581
  217EMI    C03 4107   2.527   2.377   3.497
  217EMI    H07 4108   2.364   2.379   3.784
  217EMI    H09 4109   2.719   2.300   3.557
  217EMI    H08 4110   2.537   2.393   3.392
  217EMI    C05 4111   2.279   2.455   3.528
  217EMI    H0B 4112   2.231   2.511   3.606
  217EMI    H0C 4113   2.297   2.519   3.444
  217EMI    H0D 4114   2.216   2.374   3.499
  217EMI    N00 4115   2.407   2.403   3.578
  217EMI    C06 4116   2.620   2.282   3.838
  217EMI    H0F 4117   2.604   2.177   3.851
  217EMI    C0N 4118   2.771   2.310   3.831
  217EMI    H0O 4119   2.818   2.277   3.921
  217EMI    H0P 4120   2.813   2.257   3.748
  217EMI    H0Q 4121   2.788   2.415   3.818
  217EMI    N02 4122   2.556   2.327   3.714
  217EMI    H0E 4123   2.578   2.335   3.921
  218EMI    C01 4124   3.937   2.411   0.211
  218EMI    C04 4125   3.871   2.624   0.182
  218EMI    C03 4126   4.001   2.619   0.153
  218EMI    H07 4127   3.938   2.306   0.233
  218EMI    H09 4128   3.808   2.711   0.178
  218EMI    H08 4129   4.064   2.700   0.122
  218EMI    C05 4130   4.177   2.426   0.154
  218EMI    H0B 4131   4.171   2.323   0.124
  218EMI    H0C 4132   4.227   2.482   0.078
  218EMI    H0D 4133   4.232   2.433   0.245
  218EMI    N00 4134   4.042   2.480   0.173
  218EMI    C06 4135   3.697   2.445   0.259
  218EMI    H0F 4136   3.686   2.455   0.365
  218EMI    C0N 4137   3.592   2.533   0.188
  218EMI    H0O 4138   3.494   2.502   0.217
  218EMI    H0P 4139   3.607   2.636   0.216
  218EMI    H0Q 4140   3.603   2.524   0.082
  218EMI    N02 4141   3.832   2.488   0.219
  218EMI    H0E 4142   3.682   2.343   0.230
  219EMI    C01 4143   3.115   1.216   2.767
  219EMI    C04 4144   3.329   1.189   2.832
  219EMI    C03 4145   3.306   1.321   2.826
  219EMI    H07 4146   3.014   1.197   2.736
  219EMI    H09 4147   3.420   1.141   2.860
  219EMI    H08 4148   3.375   1.399   2.847
  219EMI    C05 4149   3.096   1.463   2.762
  219EMI    H0B 4150   2.992   1.450   2.783
  219EMI    H0C 4151   3.137   1.537   2.828
  219EMI    H0D 4152   3.109   1.494   2.661
  219EMI    N00 4153   3.166   1.335   2.783
  219EMI    C06 4154   3.181   0.979   2.786
  219EMI    H0F 4155   3.205   0.944   2.688
  219EMI    C0N 4156   3.270   0.908   2.889
  219EMI    H0O 4157   3.254   0.802   2.884
  219EMI    H0P 4158   3.373   0.929   2.868
  219EMI    H0Q 4159   3.246   0.943   2.988
  219EMI    N02 4160   3.203   1.124   2.794
  219EMI    H0E 4161   3.078   0.958   2.808
  220EMI    C01 4162   2.677   3.196   1.984
  220EMI    C04 4163   2.690   3.402   2.074
  220EMI    C03 4164   2.610   3.330   2.153
  220EMI    H07 4165   2.691   3.112   1.920
  220EMI    H09 4166   2.718   3.505   2.088
  220EMI    H08 4167   2.560   3.362   2.242
  220EMI    C05 4168   2.526   3.082   2.143
  220EMI    H0B 4169   2.576   2.991   2.116
  220EMI    H0C 4170   2.519   3.089   2.250
  220EMI    H0D 4171   2.428   3.084   2.101
  220EMI    N00 4172   2.603   3.197   2.092
  220EMI    C06 4173   2.822   3.350   1.855
  220EMI    H0F 4174   2.764   3.388   1.774
  220EMI    C0N 4175   2.921   3.458   1.903
  220EMI    H0O 4176   2.986   3.485   1.822
  220EMI    H0P 4177   2.866   3.545   1.935
  220EMI    H0Q 4178   2.979   3.421   1.985
  220EMI    N02 4179   2.732   3.313   1.966
  220EMI    H0E 4180   2.877   3.264   1.824
  221EMI    C01 4181   0.249   3.683   2.019
  221EMI    C04 4182   0.272   3.459   2.017
  221EMI    C03 4183   0.291   3.502   1.891
  221EMI    H07 4184   0.232   3.784   2.052
  221EMI    H09 4185   0.276   3.357   2.051
  221EMI    H08 4186   0.312   3.442   1.805
  221EMI    C05 4187   0.286   3.738   1.781
  221EMI    H0B 4188   0.322   3.834   1.815
  221EMI    H0C 4189   0.355   3.698   1.710
  221EMI    H0D 4190   0.191   3.750   1.736
  221EMI    N00 4191   0.275   3.647   1.896
  221EMI    C06 4192   0.219   3.580   2.242
  221EMI    H0F 4193   0.114   3.570   2.259
  221EMI    C0N 4194   0.293   3.462   2.309
  221EMI    H0O 4195   0.273   3.463   2.414
  221EMI    H0P 4196   0.258   3.370   2.267
  221EMI    H0Q 4197   0.398   3.472   2.292
  221EMI    N02 4198   0.245   3.578   2.097
  221EMI    H0E 4199   0.253   3.672   2.283
  222EMI    C01 4200   5.010   1.229   2.267
  222EMI    C04 4201   4.811   1.181   2.362
  222EMI    C03 4202   4.866   1.281   2.433
  222EMI    H07 4203   5.096   1.227   2.203
  222EMI    H09 4204   4.717   1.134   2.380
  222EMI    H08 4205   4.824   1.330   2.518
  222EMI    C05 4206   5.091   1.412   2.412
  222EMI    H0B 4207   5.145   1.448   2.327
  222EMI    H0C 4208   5.038   1.493   2.457
  222EMI    H0D 4209   5.159   1.370   2.483
  222EMI    N00 4210   4.995   1.309   2.369
  222EMI    C06 4211   4.889   1.046   2.153
  222EMI    H0F 4212   4.930   0.953   2.189
  222EMI    C0N 4213   4.739   1.028   2.123
  222EMI    H0O 4214   4.727   0.952   2.049
  222EMI    H0P 4215   4.688   0.998   2.213
  222EMI    H0Q 4216   4.699   1.120   2.088
  222EMI    N02 4217   4.907   1.149   2.256
  222EMI    H0E 4218   4.940   1.075   2.064
  223EMI    C01 4219   4.894   3.840   1.938
  223EMI    C04 4220   5.019   3.824   2.126
  223EMI    C03 4221   4.966   3.947   2.123
  223EMI    H07 4222   4.845   3.817   1.845
  223EMI    H09 4223   5.083   3.783   2.201
  223EMI    H08 4224   4.980   4.025   2.195
  223EMI    C05 4225   4.809   4.071   1.955
  223EMI    H0B 4226   4.724   4.038   1.899
  223EMI    H0C 4227   4.776   4.127   2.040
  223EMI    H0D 4228   4.871   4.133   1.893
  223EMI    N00 4229   4.886   3.954   2.000
  223EMI    C06 4230   5.002   3.619   1.965
  223EMI    H0F 4231   5.091   3.619   1.905
  223EMI    C0N 4232   5.026   3.533   2.091
  223EMI    H0O 4233   5.049   3.433   2.062
  223EMI    H0P 4234   5.108   3.574   2.147
  223EMI    H0Q 4235   4.938   3.534   2.151
  223EMI    N02 4236   4.970   3.757   2.005
  223EMI    H0E 4237   4.921   3.578   1.909
  224EMI    C01 4238   4.247   1.573   1.321
  224EMI    C04 4239   4.273   1.795   1.354
  224EMI    C03 4240   4.247   1.777   1.224
  224EMI    H07 4241   4.241   1.467   1.337
  224EMI    H09 4242   4.290   1.888   1.404
  224EMI    H08 4243   4.240   1.852   1.149
  224EMI    C05 4244   4.201   1.565   1.079
  224EMI    H0B 4245   4.145   1.475   1.098
  224EMI    H0C 4246   4.144   1.630   1.016
  224EMI    H0D 4247   4.293   1.540   1.029
  224EMI    N00 4248   4.231   1.632   1.206
  224EMI    C06 4249   4.296   1.631   1.557
  224EMI    H0F 4250   4.401   1.615   1.573
  224EMI    C0N 4251   4.249   1.750   1.643
  224EMI    H0O 4252   4.266   1.728   1.746
  224EMI    H0P 4253   4.303   1.838   1.615
  224EMI    H0Q 4254   4.144   1.766   1.627
  224EMI    N02 4255   4.272   1.661   1.415
  224EMI    H0E 4256   4.242   1.543   1.584
  225EMI    C01 4257   2.162   0.341   4.937
  225EMI    C04 4258   2.039   0.342   4.748
  225EMI    C03 4259   2.016   0.226   4.810
  225EMI    H07 4260   2.229   0.369   5.015
  225EMI    H09 4261   1.997   0.376   4.655
  225EMI    H08 4262   1.951   0.148   4.777
  225EMI    C05 4263   2.103   0.121   5.032
  225EMI    H0B 4264   2.123   0.163   5.128
  225EMI    H0C 4265   2.009   0.069   5.035
  225EMI    H0D 4266   2.181   0.052   5.006
  225EMI    N00 4267   2.097   0.228   4.932
  225EMI    C06 4268   2.190   0.548   4.804
  225EMI    H0F 4269   2.280   0.538   4.747
  225EMI    C0N 4270   2.088   0.630   4.724
  225EMI    H0O 4271   2.128   0.727   4.704
  225EMI    H0P 4272   2.066   0.580   4.632
  225EMI    H0Q 4273   1.998   0.640   4.781
  225EMI    N02 4274   2.135   0.415   4.832
  225EMI    H0E 4275   2.212   0.598   4.896
  226EMI    C01 4276   3.260   2.221   3.830
  226EMI    C04 4277   3.454   2.325   3.880
  226EMI    C03 4278   3.479   2.242   3.778
  226EMI    H07 4279   3.158   2.190   3.831
  226EMI    H09 4280   3.524   2.390   3.928
  226EMI    H08 4281   3.573   2.227   3.729
  226EMI    C05 4282   3.330   2.076   3.643
  226EMI    H0B 4283   3.229   2.082   3.607
  226EMI    H0C 4284   3.398   2.094   3.562
  226EMI    H0D 4285   3.347   1.978   3.683
  226EMI    N00 4286   3.352   2.176   3.748
  226EMI    C06 4287   3.239   2.382   4.017
  226EMI    H0F 4288   3.244   2.326   4.108
  226EMI    C0N 4289   3.303   2.520   4.038
  226EMI    H0O 4290   3.250   2.573   4.115
  226EMI    H0P 4291   3.406   2.508   4.067
  226EMI    H0Q 4292   3.298   2.576   3.947
  226EMI    N02 4293   3.312   2.310   3.911
  226EMI    H0E 4294   3.137   2.394   3.988
  227EMI    C01 4295   2.881   3.292   4.448
  227EMI    C04 4296   3.025   3.192   4.591
  227EMI    C03 4297   3.094   3.285   4.524
  227EMI    H07 4298   2.793   3.318   4.394
  227EMI    H09 4299   3.062   3.127   4.667
  227EMI    H08 4300   3.197   3.309   4.535
  227EMI    C05 4301   3.029   3.457   4.338
  227EMI    H0B 4302   2.941   3.517   4.323
  227EMI    H0C 4303   3.108   3.517   4.377
  227EMI    H0D 4304   3.059   3.415   4.244
  227EMI    N00 4305   2.998   3.348   4.432
  227EMI    C06 4306   2.776   3.115   4.584
  227EMI    H0F 4307   2.772   3.026   4.524
  227EMI    C0N 4308   2.796   3.076   4.732
  227EMI    H0O 4309   2.715   3.014   4.764
  227EMI    H0P 4310   2.888   3.022   4.742
  227EMI    H0Q 4311   2.800   3.164   4.792
  227EMI    N02 4312   2.888   3.199   4.540
  227EMI    H0E 4313   2.684   3.169   4.574
  228EMI    C01 4314   4.390   2.050   4.217
  228EMI    C04 4315   4.239   2.021   4.052
  228EMI    C03 4316   4.171   2.043   4.165
  228EMI    H07 4317   4.482   2.059   4.271
  228EMI    H09 4318   4.198   2.002   3.955
  228EMI    H08 4319   4.065   2.046   4.177
  228EMI    C05 4320   4.243   2.089   4.412
  228EMI    H0B 4321   4.323   2.148   4.453
  228EMI    H0C 4322   4.151   2.143   4.420
  228EMI    H0D 4323   4.235   1.997   4.465
  228EMI    N00 4324   4.271   2.062   4.270
  228EMI    C06 4325   4.494   2.007   3.997
  228EMI    H0F 4326   4.520   1.903   3.993
  228EMI    C0N 4327   4.454   2.054   3.856
  228EMI    H0O 4328   4.536   2.040   3.789
  228EMI    H0P 4329   4.370   1.997   3.822
  228EMI    H0Q 4330   4.427   2.158   3.859
  228EMI    N02 4331   4.381   2.026   4.089
  228EMI    H0E 4332   4.578   2.064   4.031
  229EMI    C01 4333   0.933   3.625   4.430
  229EMI    C04 4334   0.795   3.803   4.444
  229EMI    C03 4335   0.828   3.768   4.569
  229EMI    H07 4336   0.993   3.545   4.392
  229EMI    H09 4337   0.731   3.883   4.415
  229EMI    H08 4338   0.796   3.815   4.660
  229EMI    C05 4339   0.979   3.580   4.668
  229EMI    H0B 4340   1.073   3.539   4.637
  229EMI    H0C 4341   0.995   3.647   4.750
  229EMI    H0D 4342   0.915   3.500   4.699
  229EMI    N00 4343   0.917   3.652   4.557
  229EMI    C06 4344   0.858   3.708   4.209
  229EMI    H0F 4345   0.777   3.646   4.177
  229EMI    C0N 4346   0.836   3.852   4.158
  229EMI    H0O 4347   0.832   3.851   4.051
  229EMI    H0P 4348   0.744   3.890   4.198
  229EMI    H0Q 4349   0.917   3.914   4.190
  229EMI    N02 4350   0.865   3.708   4.356
  229EMI    H0E 4351   0.950   3.670   4.170
  230EMI    C01 4352   3.340   2.757   3.660
  230EMI    C04 4353   3.343   2.531   3.651
  230EMI    C03 4354   3.224   2.572   3.603
  230EMI    H07 4355   3.369   2.858   3.677
  230EMI    H09 4356   3.377   2.430   3.660
  230EMI    H08 4357   3.145   2.510   3.567
  230EMI    C05 4358   3.116   2.807   3.569
  230EMI    H0B 4359   3.157   2.900   3.536
  230EMI    H0C 4360   3.061   2.761   3.489
  230EMI    H0D 4361   3.051   2.824   3.652
  230EMI    N00 4362   3.226   2.718   3.611
  230EMI    C06 4363   3.551   2.658   3.744
  230EMI    H0F 4364   3.545   2.655   3.850
  230EMI    C0N 4365   3.632   2.537   3.693
  230EMI    H0O 4366   3.731   2.541   3.735
  230EMI    H0P 4367   3.584   2.447   3.724
  230EMI    H0Q 4368   3.638   2.540   3.586
  230EMI    N02 4369   3.416   2.653   3.687
  230EMI    H0E 4370   3.599   2.749   3.713
  231EMI    C01 4371   1.037   4.555   3.211
  231EMI    C04 4372   1.116   4.762   3.256
  231EMI    C03 4373   1.221   4.678   3.256
  231EMI    H07 4374   0.972   4.473   3.189
  231EMI    H09 4375   1.118   4.867   3.274
  231EMI    H08 4376   1.323   4.703   3.274
  231EMI    C05 4377   1.245   4.421   3.216
  231EMI    H0B 4378   1.197   4.355   3.148
  231EMI    H0C 4379   1.343   4.444   3.182
  231EMI    H0D 4380   1.251   4.375   3.313
  231EMI    N00 4381   1.167   4.545   3.227
  231EMI    C06 4382   0.860   4.728   3.217
  231EMI    H0F 4383   0.814   4.723   3.313
  231EMI    C0N 4384   0.861   4.873   3.167
  231EMI    H0O 4385   0.760   4.909   3.160
  231EMI    H0P 4386   0.915   4.935   3.236
  231EMI    H0Q 4387   0.907   4.878   3.071
  231EMI    N02 4388   0.999   4.679   3.227
  231EMI    H0E 4389   0.806   4.667   3.148
  232EMI    C01 4390   1.251   3.091   2.929
  232EMI    C04 4391   1.393   2.927   2.991
  232EMI    C03 4392   1.322   2.881   2.887
  232EMI    H07 4393   1.198   3.184   2.924
  232EMI    H09 4394   1.469   2.875   3.045
  232EMI    H08 4395   1.330   2.785   2.841
  232EMI    C05 4396   1.134   2.985   2.739
  232EMI    H0B 4397   1.120   3.084   2.700
  232EMI    H0C 4398   1.170   2.921   2.662
  232EMI    H0D 4399   1.040   2.948   2.776
  232EMI    N00 4400   1.231   2.990   2.849
  232EMI    C06 4401   1.393   3.153   3.122
  232EMI    H0F 4402   1.335   3.138   3.211
  232EMI    C0N 4403   1.541   3.122   3.151
  232EMI    H0O 4404   1.577   3.187   3.228
  232EMI    H0P 4405   1.550   3.020   3.184
  232EMI    H0Q 4406   1.599   3.137   3.062
  232EMI    N02 4407   1.344   3.063   3.016
  232EMI    H0E 4408   1.384   3.254   3.089
  233EMI    C01 4409   1.332   1.522   4.781
  233EMI    C04 4410   1.167   1.394   4.867
  233EMI    C03 4411   1.237   1.317   4.783
  233EMI    H07 4412   1.396   1.605   4.760
  233EMI    H09 4413   1.082   1.365   4.925
  233EMI    H08 4414   1.219   1.214   4.759
  233EMI    C05 4415   1.444   1.362   4.631
  233EMI    H0B 4416   1.534   1.418   4.647
  233EMI    H0C 4417   1.465   1.257   4.643
  233EMI    H0D 4418   1.408   1.379   4.532
  233EMI    N00 4419   1.343   1.403   4.729
  233EMI    C06 4420   1.188   1.643   4.942
  233EMI    H0F 4421   1.117   1.699   4.886
  233EMI    C0N 4422   1.124   1.597   5.074
  233EMI    H0O 4423   1.093   1.682   5.131
  233EMI    H0P 4424   1.039   1.535   5.053
  233EMI    H0Q 4425   1.195   1.540   5.131
  233EMI    N02 4426   1.231   1.526   4.864
  233EMI    H0E 4427   1.273   1.704   4.963
  234EMI    C01 4428   1.567   3.979   2.305
  234EMI    C04 4429   1.710   4.147   2.258
  234EMI    C03 4430   1.596   4.203   2.301
  234EMI    H07 4431   1.524   3.882   2.317
  234EMI    H09 4432   1.799   4.198   2.228
  234EMI    H08 4433   1.576   4.307   2.311
  234EMI    C05 4434   1.368   4.104   2.380
  234EMI    H0B 4435   1.343   4.019   2.440
  234EMI    H0C 4436   1.359   4.193   2.439
  234EMI    H0D 4437   1.300   4.110   2.297
  234EMI    N00 4438   1.505   4.091   2.330
  234EMI    C06 4439   1.787   3.900   2.223
  234EMI    H0F 4440   1.776   3.878   2.119
  234EMI    C0N 4441   1.929   3.952   2.251
  234EMI    H0O 4442   2.000   3.878   2.223
  234EMI    H0P 4443   1.946   4.041   2.194
  234EMI    H0Q 4444   1.939   3.974   2.355
  234EMI    N02 4445   1.688   4.002   2.262
  234EMI    H0E 4446   1.770   3.811   2.280
  235EMI    C01 4447   2.708   3.012   0.329
  235EMI    C04 4448   2.506   2.913   0.345
  235EMI    C03 4449   2.589   2.848   0.428
  235EMI    H07 4450   2.788   3.077   0.301
  235EMI    H09 4451   2.403   2.892   0.328
  235EMI    H08 4452   2.565   2.764   0.490
  235EMI    C05 4453   2.841   2.877   0.488
  235EMI    H0B 4454   2.901   2.964   0.503
  235EMI    H0C 4455   2.815   2.835   0.583
  235EMI    H0D 4456   2.896   2.805   0.431
  235EMI    N00 4457   2.719   2.914   0.415
  235EMI    C06 4458   2.538   3.116   0.184
  235EMI    H0F 4459   2.551   3.076   0.085
  235EMI    C0N 4460   2.388   3.143   0.208
  235EMI    H0O 4461   2.352   3.214   0.136
  235EMI    H0P 4462   2.333   3.052   0.198
  235EMI    H0Q 4463   2.375   3.183   0.307
  235EMI    N02 4464   2.586   3.018   0.282
  235EMI    H0E 4465   2.592   3.207   0.193
  236EMI    C01 4466   0.779   4.441   0.741
  236EMI    C04 4467   0.652   4.620   0.689
  236EMI    C03 4468   0.632   4.528   0.594
  236EMI    H07 4469   0.848   4.375   0.790
  236EMI    H09 4470   0.607   4.717   0.696
  236EMI    H08 4471   0.568   4.537   0.509
  236EMI    C05 4472   0.726   4.288   0.554
  236EMI    H0B 4473   0.747   4.207   0.621
  236EMI    H0C 4474   0.633   4.269   0.503
  236EMI    H0D 4475   0.805   4.296   0.482
  236EMI    N00 4476   0.715   4.413   0.630
  236EMI    C06 4477   0.801   4.625   0.904
  236EMI    H0F 4478   0.889   4.679   0.880
  236EMI    C0N 4479   0.695   4.722   0.961
  236EMI    H0O 4480   0.733   4.768   1.049
  236EMI    H0P 4481   0.672   4.796   0.887
  236EMI    H0Q 4482   0.606   4.667   0.985
  236EMI    N02 4483   0.748   4.560   0.783
  236EMI    H0E 4484   0.823   4.550   0.977
  237EMI    C01 4485   2.683   0.639   3.579
  237EMI    C04 4486   2.699   0.421   3.635
  237EMI    C03 4487   2.789   0.487   3.708
  237EMI    H07 4488   2.653   0.731   3.533
  237EMI    H09 4489   2.680   0.316   3.636
  237EMI    H08 4490   2.856   0.446   3.780
  237EMI    C05 4491   2.856   0.739   3.726
  237EMI    H0B 4492   2.798   0.829   3.724
  237EMI    H0C 4493   2.883   0.716   3.826
  237EMI    H0D 4494   2.944   0.753   3.667
  237EMI    N00 4495   2.777   0.628   3.670
  237EMI    C06 4496   2.525   0.496   3.454
  237EMI    H0F 4497   2.569   0.476   3.359
  237EMI    C0N 4498   2.443   0.374   3.500
  237EMI    H0O 4499   2.366   0.355   3.429
  237EMI    H0P 4500   2.508   0.288   3.507
  237EMI    H0Q 4501   2.400   0.393   3.596
  237EMI    N02 4502   2.632   0.522   3.552
  237EMI    H0E 4503   2.461   0.581   3.448
  238EMI    C01 4504   4.718   0.433   2.859
  238EMI    C04 4505   4.677   0.626   2.749
  238EMI    C03 4506   4.670   0.653   2.880
  238EMI    H07 4507   4.740   0.331   2.882
  238EMI    H09 4508   4.662   0.694   2.668
  238EMI    H08 4509   4.649   0.748   2.925
  238EMI    C05 4510   4.701   0.508   3.094
  238EMI    H0B 4511   4.769   0.429   3.119
  238EMI    H0C 4512   4.732   0.598   3.141
  238EMI    H0D 4513   4.603   0.482   3.129
  238EMI    N00 4514   4.697   0.527   2.949
  238EMI    C06 4515   4.725   0.408   2.614
  238EMI    H0F 4516   4.630   0.368   2.583
  238EMI    C0N 4517   4.779   0.502   2.504
  238EMI    H0O 4518   4.791   0.447   2.413
  238EMI    H0P 4519   4.710   0.582   2.489
  238EMI    H0Q 4520   4.874   0.541   2.535
  238EMI    N02 4521   4.708   0.483   2.739
  238EMI    H0E 4522   4.794   0.328   2.629
  239EMI    C01 4523   0.304   2.535   4.191
  239EMI    C04 4524   0.451   2.413   4.312
  239EMI    C03 4525   0.522   2.490   4.229
  239EMI    H07 4526   0.214   2.577   4.151
  239EMI    H09 4527   0.488   2.343   4.383
  239EMI    H08 4528   0.629   2.495   4.221
  239EMI    C05 4529   0.458   2.667   4.048
  239EMI    H0B 4530   0.382   2.743   4.046
  239EMI    H0C 4531   0.552   2.712   4.070
  239EMI    H0D 4532   0.463   2.619   3.953
  239EMI    N00 4533   0.425   2.568   4.152
  239EMI    C06 4534   0.194   2.384   4.352
  239EMI    H0F 4535   0.164   2.296   4.298
  239EMI    C0N 4536   0.233   2.345   4.496
  239EMI    H0O 4537   0.149   2.300   4.544
  239EMI    H0P 4538   0.314   2.274   4.493
  239EMI    H0Q 4539   0.264   2.432   4.549
  239EMI    N02 4540   0.310   2.445   4.284
  239EMI    H0E 4541   0.114   2.454   4.355
  240EMI    C01 4542   2.174   1.415   4.914
  240EMI    C04 4543   2.241   1.337   4.713
  240EMI    C03 4544   2.279   1.248   4.806
  240EMI    H07 4545   2.131   1.476   4.991
  240EMI    H09 4546   2.257   1.331   4.608
  240EMI    H08 4547   2.332   1.156   4.789
  240EMI    C05 4548   2.254   1.237   5.065
  240EMI    H0B 4549   2.174   1.264   5.131
  240EMI    H0C 4550   2.257   1.131   5.053
  240EMI    H0D 4551   2.347   1.270   5.107
  240EMI    N00 4552   2.234   1.301   4.934
  240EMI    C06 4553   2.114   1.564   4.726
  240EMI    H0F 4554   2.187   1.642   4.722
  240EMI    C0N 4555   2.065   1.532   4.584
  240EMI    H0O 4556   2.022   1.619   4.540
  240EMI    H0P 4557   2.148   1.499   4.524
  240EMI    H0Q 4558   1.992   1.454   4.588
  240EMI    N02 4559   2.173   1.444   4.786
  240EMI    H0E 4560   2.031   1.597   4.786
  241EMI    C01 4561   4.689   1.761   2.827
  241EMI    C04 4562   4.650   1.852   2.624
  241EMI    C03 4563   4.670   1.953   2.710
  241EMI    H07 4564   4.703   1.691   2.906
  241EMI    H09 4565   4.629   1.860   2.520
  241EMI    H08 4566   4.669   2.058   2.688
  241EMI    C05 4567   4.722   1.963   2.965
  241EMI    H0B 4568   4.785   1.903   3.028
  241EMI    H0C 4569   4.772   2.055   2.943
  241EMI    H0D 4570   4.630   1.983   3.016
  241EMI    N00 4571   4.695   1.891   2.840
  241EMI    C06 4572   4.648   1.593   2.651
  241EMI    H0F 4573   4.545   1.562   2.658
  241EMI    C0N 4574   4.692   1.589   2.503
  241EMI    H0O 4575   4.681   1.489   2.465
  241EMI    H0P 4576   4.630   1.656   2.446
  241EMI    H0Q 4577   4.794   1.619   2.495
  241EMI    N02 4578   4.662   1.729   2.703
  241EMI    H0E 4579   4.709   1.526   2.708
  242EMI    C01 4580   1.338   0.309   0.726
  242EMI    C04 4581   1.324   0.466   0.564
  242EMI    C03 4582   1.363   0.352   0.505
  242EMI    H07 4583   1.335   0.259   0.820
  242EMI    H09 4584   1.308   0.560   0.517
  242EMI    H08 4585   1.384   0.337   0.402
  242EMI    C05 4586   1.409   0.111   0.595
  242EMI    H0B 4587   1.360   0.051   0.669
  242EMI    H0C 4588   1.381   0.078   0.497
  242EMI    H0D 4589   1.515   0.101   0.607
  242EMI    N00 4590   1.371   0.252   0.612
  242EMI    C06 4591   1.268   0.530   0.811
  242EMI    H0F 4592   1.354   0.577   0.852
  242EMI    C0N 4593   1.175   0.636   0.750
  242EMI    H0O 4594   1.145   0.706   0.826
  242EMI    H0P 4595   1.227   0.689   0.672
  242EMI    H0Q 4596   1.088   0.589   0.708
  242EMI    N02 4597   1.309   0.435   0.707
  242EMI    H0E 4598   1.216   0.478   0.888
  243EMI    C01 4599   2.827   4.143   4.737
  243EMI    C04 4600   2.632   4.194   4.636
  243EMI    C03 4601   2.705   4.306   4.640
  243EMI    H07 4602   2.906   4.090   4.786
  243EMI    H09 4603   2.533   4.183   4.595
  243EMI    H08 4604   2.677   4.403   4.602
  243EMI    C05 4605   2.943   4.362   4.732
  243EMI    H0B 4606   3.035   4.307   4.730
  243EMI    H0C 4607   2.945   4.438   4.656
  243EMI    H0D 4608   2.930   4.407   4.828
  243EMI    N00 4609   2.831   4.270   4.705
  243EMI    C06 4610   2.674   3.950   4.718
  243EMI    H0F 4611   2.624   3.939   4.813
  243EMI    C0N 4612   2.579   3.908   4.605
  243EMI    H0O 4613   2.550   3.806   4.619
  243EMI    H0P 4614   2.491   3.970   4.607
  243EMI    H0Q 4615   2.628   3.919   4.511
  243EMI    N02 4616   2.713   4.091   4.700
  243EMI    H0E 4617   2.761   3.888   4.717
  244EMI    C01 4618   4.165   2.043   0.548
  244EMI    C04 4619   4.266   2.130   0.730
  244EMI    C03 4620   4.342   2.028   0.687
  244EMI    H07 4621   4.096   2.025   0.468
  244EMI    H09 4622   4.285   2.193   0.815
  244EMI    H08 4623   4.434   1.993   0.730
  244EMI    C05 4624   4.321   1.860   0.488
  244EMI    H0B 4625   4.288   1.873   0.387
  244EMI    H0C 4626   4.427   1.856   0.491
  244EMI    H0D 4627   4.280   1.769   0.527
  244EMI    N00 4628   4.274   1.974   0.569
  244EMI    C06 4629   4.042   2.234   0.646
  244EMI    H0F 4630   3.964   2.194   0.707
  244EMI    C0N 4631   4.094   2.365   0.708
  244EMI    H0O 4632   4.013   2.436   0.714
  244EMI    H0P 4633   4.131   2.346   0.807
  244EMI    H0Q 4634   4.172   2.405   0.647
  244EMI    N02 4635   4.152   2.137   0.638
  244EMI    H0E 4636   4.005   2.253   0.548
  245EMI    C01 4637   2.338   3.658   0.217
  245EMI    C04 4638   2.275   3.459   0.130
  245EMI    C03 4639   2.409   3.465   0.124
  245EMI    H07 4640   2.336   3.755   0.262
  245EMI    H09 4641   2.213   3.379   0.097
  245EMI    H08 4642   2.475   3.390   0.085
  245EMI    C05 4643   2.584   3.644   0.196
  245EMI    H0B 4644   2.590   3.709   0.281
  245EMI    H0C 4645   2.651   3.562   0.209
  245EMI    H0D 4646   2.612   3.699   0.108
  245EMI    N00 4647   2.447   3.594   0.181
  245EMI    C06 4648   2.093   3.625   0.217
  245EMI    H0F 4649   2.054   3.676   0.131
  245EMI    C0N 4650   2.009   3.499   0.244
  245EMI    H0O 4651   1.908   3.528   0.263
  245EMI    H0P 4652   2.012   3.435   0.159
  245EMI    H0Q 4653   2.048   3.447   0.329
  245EMI    N02 4654   2.232   3.586   0.190
  245EMI    H0E 4655   2.090   3.689   0.302
  246EMI    C01 4656   0.735   1.342   0.818
  246EMI    C04 4657   0.736   1.566   0.791
  246EMI    C03 4658   0.840   1.518   0.723
  246EMI    H07 4659   0.709   1.243   0.848
  246EMI    H09 4660   0.706   1.669   0.800
  246EMI    H08 4661   0.911   1.574   0.666
  246EMI    C05 4662   0.933   1.277   0.685
  246EMI    H0B 4663   0.884   1.183   0.669
  246EMI    H0C 4664   0.970   1.315   0.592
  246EMI    H0D 4665   1.015   1.264   0.753
  246EMI    N00 4666   0.837   1.373   0.742
  246EMI    C06 4667   0.550   1.454   0.937
  246EMI    H0F 4668   0.579   1.465   1.039
  246EMI    C0N 4669   0.462   1.574   0.896
  246EMI    H0O 4670   0.375   1.577   0.958
  246EMI    H0P 4671   0.518   1.665   0.908
  246EMI    H0Q 4672   0.433   1.563   0.793
  246EMI    N02 4673   0.670   1.450   0.852
  246EMI    H0E 4674   0.494   1.364   0.925
  247EMI    C01 4675   1.881   1.592   0.444
  247EMI    C04 4676   1.986   1.751   0.566
  247EMI    C03 4677   2.079   1.665   0.524
  247EMI    H07 4678   1.807   1.535   0.394
  247EMI    H09 4679   2.000   1.838   0.627
  247EMI    H08 4680   2.184   1.670   0.544
  247EMI    C05 4681   2.072   1.449   0.379
  247EMI    H0B 4682   2.015   1.423   0.292
  247EMI    H0C 4683   2.172   1.474   0.351
  247EMI    H0D 4684   2.073   1.365   0.446
  247EMI    N00 4685   2.009   1.564   0.445
  247EMI    C06 4686   1.727   1.764   0.533
  247EMI    H0F 4687   1.682   1.723   0.621
  247EMI    C0N 4688   1.744   1.916   0.549
  247EMI    H0O 4689   1.648   1.961   0.564
  247EMI    H0P 4690   1.807   1.936   0.634
  247EMI    H0Q 4691   1.789   1.956   0.461
  247EMI    N02 4692   1.859   1.701   0.513
  247EMI    H0E 4693   1.665   1.743   0.449
  248EMI    C01 4694   3.327   3.752   1.784
  248EMI    C04 4695   3.552   3.762   1.797
  248EMI    C03 4696   3.516   3.635   1.821
  248EMI    H07 4697   3.224   3.778   1.772
  248EMI    H09 4698   3.651   3.801   1.795
  248EMI    H08 4699   3.581   3.553   1.843
  248EMI    C05 4700   3.286   3.513   1.832
  248EMI    H0B 4701   3.197   3.522   1.773
  248EMI    H0C 4702   3.340   3.425   1.803
  248EMI    H0D 4703   3.259   3.505   1.935
  248EMI    N00 4704   3.370   3.632   1.812
  248EMI    C06 4705   3.416   3.978   1.742
  248EMI    H0F 4706   3.408   4.034   1.833
  248EMI    C0N 4707   3.543   4.024   1.666
  248EMI    H0O 4708   3.535   4.128   1.643
  248EMI    H0P 4709   3.629   4.007   1.727
  248EMI    H0Q 4710   3.552   3.968   1.575
  248EMI    N02 4711   3.427   3.835   1.773
  248EMI    H0E 4712   3.330   3.995   1.681
  249EMI    C01 4713   3.461   1.540   4.572
  249EMI    C04 4714   3.325   1.657   4.708
  249EMI    C03 4715   3.361   1.739   4.608
  249EMI    H07 4716   3.520   1.461   4.528
  249EMI    H09 4717   3.262   1.681   4.791
  249EMI    H08 4718   3.332   1.841   4.595
  249EMI    C05 4719   3.513   1.708   4.398
  249EMI    H0B 4720   3.525   1.627   4.330
  249EMI    H0C 4721   3.451   1.783   4.353
  249EMI    H0D 4722   3.608   1.750   4.422
  249EMI    N00 4723   3.449   1.660   4.521
  249EMI    C06 4724   3.382   1.409   4.765
  249EMI    H0F 4725   3.459   1.410   4.839
  249EMI    C0N 4726   3.244   1.406   4.836
  249EMI    H0O 4727   3.237   1.319   4.896
  249EMI    H0P 4728   3.234   1.493   4.897
  249EMI    H0Q 4729   3.167   1.405   4.762
  249EMI    N02 4730   3.392   1.529   4.682
  249EMI    H0E 4731   3.392   1.322   4.704
  250EMI    C01 4732   1.922   4.975   4.095
  250EMI    C04 4733   1.974   4.763   4.154
  250EMI    C03 4734   1.878   4.805   4.237
  250EMI    H07 4735   1.921   5.069   4.045
  250EMI    H09 4736   2.022   4.667   4.154
  250EMI    H08 4737   1.833   4.750   4.316
  250EMI    C05 4738   1.746   5.029   4.259
  250EMI    H0B 4739   1.706   5.096   4.186
  250EMI    H0C 4740   1.667   4.969   4.299
  250EMI    H0D 4741   1.791   5.085   4.338
  250EMI    N00 4742   1.846   4.942   4.196
  250EMI    C06 4743   2.100   4.875   3.954
  250EMI    H0F 4744   2.194   4.910   3.992
  250EMI    C0N 4745   2.116   4.732   3.900
  250EMI    H0O 4746   2.188   4.733   3.821
  250EMI    H0P 4747   2.150   4.668   3.978
  250EMI    H0Q 4748   2.022   4.697   3.862
  250EMI    N02 4749   2.001   4.875   4.063
  250EMI    H0E 4750   2.066   4.940   3.876
  251EMI    C01 4751   2.185   4.922   1.317
  251EMI    C04 4752   2.250   4.739   1.202
  251EMI    C03 4753   2.119   4.728   1.222
  251EMI    H07 4754   2.185   5.015   1.369
  251EMI    H09 4755   2.314   4.669   1.151
  251EMI    H08 4756   2.055   4.648   1.190
  251EMI    C05 4757   1.943   4.880   1.341
  251EMI    H0B 4758   1.930   4.986   1.344
  251EMI    H0C 4759   1.872   4.837   1.273
  251EMI    H0D 4760   1.927   4.839   1.439
  251EMI    N00 4761   2.079   4.848   1.296
  251EMI    C06 4762   2.427   4.919   1.268
  251EMI    H0F 4763   2.478   4.884   1.356
  251EMI    C0N 4764   2.504   4.873   1.143
  251EMI    H0O 4765   2.604   4.912   1.145
  251EMI    H0P 4766   2.508   4.766   1.141
  251EMI    H0Q 4767   2.454   4.908   1.055
  251EMI    N02 4768   2.291   4.865   1.265
  251EMI    H0E 4769   2.423   5.026   1.270
  252EMI    C01 4770   2.680   2.422   1.217
  252EMI    C04 4771   2.784   2.270   1.347
  252EMI    C03 4772   2.867   2.374   1.334
  252EMI    H07 4773   2.608   2.472   1.155
  252EMI    H09 4774   2.801   2.180   1.402
  252EMI    H08 4775   2.964   2.384   1.377
  252EMI    C05 4776   2.850   2.602   1.208
  252EMI    H0B 4777   2.769   2.670   1.195
  252EMI    H0C 4778   2.916   2.639   1.284
  252EMI    H0D 4779   2.903   2.592   1.116
  252EMI    N00 4780   2.797   2.471   1.250
  252EMI    C06 4781   2.545   2.219   1.254
  252EMI    H0F 4782   2.557   2.156   1.168
  252EMI    C0N 4783   2.528   2.131   1.380
  252EMI    H0O 4784   2.441   2.070   1.368
  252EMI    H0P 4785   2.614   2.070   1.392
  252EMI    H0Q 4786   2.516   2.194   1.465
  252EMI    N02 4787   2.664   2.304   1.269
  252EMI    H0E 4788   2.458   2.280   1.241
  253EMI    C01 4789   1.021   1.605   4.022
  253EMI    C04 4790   0.954   1.392   3.989
  253EMI    C03 4791   0.928   1.459   3.876
  253EMI    H07 4792   1.060   1.694   4.066
  253EMI    H09 4793   0.935   1.288   4.008
  253EMI    H08 4794   0.885   1.421   3.787
  253EMI    C05 4795   0.964   1.708   3.804
  253EMI    H0B 4796   1.044   1.777   3.822
  253EMI    H0C 4797   0.972   1.669   3.705
  253EMI    H0D 4798   0.870   1.758   3.816
  253EMI    N00 4799   0.972   1.597   3.901
  253EMI    C06 4800   1.058   1.460   4.218
  253EMI    H0F 4801   0.977   1.476   4.287
  253EMI    C0N 4802   1.104   1.313   4.228
  253EMI    H0O 4803   1.137   1.292   4.327
  253EMI    H0P 4804   1.023   1.248   4.202
  253EMI    H0Q 4805   1.185   1.297   4.160
  253EMI    N02 4806   1.014   1.489   4.081
  253EMI    H0E 4807   1.140   1.524   4.244
  254EMI    C01 4808   2.124   0.617   3.147
  254EMI    C04 4809   2.188   0.681   2.941
  254EMI    C03 4810   2.276   0.590   2.983
  254EMI    H07 4811   2.070   0.607   3.239
  254EMI    H09 4812   2.189   0.733   2.847
  254EMI    H08 4813   2.362   0.554   2.930
  254EMI    C05 4814   2.299   0.451   3.203
  254EMI    H0B 4815   2.226   0.403   3.265
  254EMI    H0C 4816   2.348   0.378   3.142
  254EMI    H0D 4817   2.371   0.500   3.264
  254EMI    N00 4818   2.232   0.550   3.117
  254EMI    C06 4819   1.975   0.787   3.048
  254EMI    H0F 4820   2.003   0.882   3.088
  254EMI    C0N 4821   1.925   0.805   2.903
  254EMI    H0O 4822   1.841   0.871   2.902
  254EMI    H0P 4823   2.004   0.847   2.844
  254EMI    H0Q 4824   1.897   0.710   2.863
  254EMI    N02 4825   2.091   0.697   3.049
  254EMI    H0E 4826   1.896   0.745   3.107
  255EMI    C01 4827   0.388   1.086   1.523
  255EMI    C04 4828   0.414   1.029   1.740
  255EMI    C03 4829   0.314   1.117   1.734
  255EMI    H07 4830   0.400   1.093   1.417
  255EMI    H09 4831   0.452   0.981   1.827
  255EMI    H08 4832   0.256   1.155   1.816
  255EMI    C05 4833   0.201   1.248   1.538
  255EMI    H0B 4834   0.176   1.219   1.438
  255EMI    H0C 4835   0.114   1.248   1.599
  255EMI    H0D 4836   0.244   1.346   1.537
  255EMI    N00 4837   0.299   1.153   1.593
  255EMI    C06 4838   0.569   0.922   1.559
  255EMI    H0F 4839   0.661   0.975   1.561
  255EMI    C0N 4840   0.577   0.801   1.654
  255EMI    H0O 4841   0.657   0.737   1.623
  255EMI    H0P 4842   0.597   0.836   1.754
  255EMI    H0Q 4843   0.485   0.748   1.653
  255EMI    N02 4844   0.460   1.011   1.602
  255EMI    H0E 4845   0.549   0.887   1.459
  256EMI    C01 4846   4.183   1.025   0.259
  256EMI    C04 4847   4.068   1.215   0.297
  256EMI    C03 4848   3.981   1.114   0.308
  256EMI    H07 4849   4.261   0.955   0.237
  256EMI    H09 4850   4.047   1.320   0.310
  256EMI    H08 4851   3.877   1.121   0.331
  256EMI    C05 4852   4.004   0.855   0.284
  256EMI    H0B 4853   4.081   0.787   0.315
  256EMI    H0C 4854   3.922   0.850   0.353
  256EMI    H0D 4855   3.970   0.829   0.186
  256EMI    N00 4856   4.058   0.992   0.283
  256EMI    C06 4857   4.323   1.227   0.244
  256EMI    H0F 4858   4.333   1.252   0.140
  256EMI    C0N 4859   4.323   1.356   0.328
  256EMI    H0O 4860   4.415   1.409   0.312
  256EMI    H0P 4861   4.241   1.418   0.298
  256EMI    H0Q 4862   4.314   1.331   0.432
  256EMI    N02 4863   4.198   1.154   0.265
  256EMI    H0E 4864   4.406   1.165   0.273
  257EMI    C01 4865   1.909   2.399   2.411
  257EMI    C04 4866   2.066   2.237   2.420
  257EMI    C03 4867   2.130   2.354   2.411
  257EMI    H07 4868   1.815   2.450   2.409
  257EMI    H09 4869   2.109   2.139   2.426
  257EMI    H08 4870   2.236   2.369   2.408
  257EMI    C05 4871   2.049   2.602   2.395
  257EMI    H0B 4872   1.969   2.654   2.443
  257EMI    H0C 4873   2.142   2.626   2.443
  257EMI    H0D 4874   2.053   2.630   2.292
  257EMI    N00 4875   2.026   2.457   2.406
  257EMI    C06 4876   1.813   2.172   2.428
  257EMI    H0F 4877   1.785   2.141   2.329
  257EMI    C0N 4878   1.859   2.049   2.509
  257EMI    H0O 4879   1.779   1.978   2.515
  257EMI    H0P 4880   1.943   2.004   2.460
  257EMI    H0Q 4881   1.887   2.079   2.607
  257EMI    N02 4882   1.923   2.269   2.420
  257EMI    H0E 4883   1.729   2.217   2.477
  258EMI    C01 4884   2.674   1.006   3.900
  258EMI    C04 4885   2.848   0.990   4.043
  258EMI    C03 4886   2.742   0.933   4.102
  258EMI    H07 4887   2.614   1.028   3.814
  258EMI    H09 4888   2.947   0.999   4.083
  258EMI    H08 4889   2.739   0.888   4.199
  258EMI    C05 4890   2.494   0.897   4.029
  258EMI    H0B 4891   2.450   0.870   3.935
  258EMI    H0C 4892   2.496   0.811   4.093
  258EMI    H0D 4893   2.436   0.974   4.075
  258EMI    N00 4894   2.631   0.945   4.007
  258EMI    C06 4895   2.883   1.105   3.811
  258EMI    H0F 4896   2.878   1.210   3.827
  258EMI    C0N 4897   3.029   1.058   3.823
  258EMI    H0O 4898   3.089   1.108   3.750
  258EMI    H0P 4899   3.066   1.081   3.921
  258EMI    H0Q 4900   3.034   0.952   3.807
  258EMI    N02 4901   2.801   1.036   3.912
  258EMI    H0E 4902   2.846   1.082   3.713
  259EMI    C01 4903   3.936   1.562   1.276
  259EMI    C04 4904   3.750   1.689   1.300
  259EMI    C03 4905   3.738   1.622   1.185
  259EMI    H07 4906   4.031   1.516   1.293
  259EMI    H09 4907   3.680   1.758   1.342
  259EMI    H08 4908   3.657   1.627   1.115
  259EMI    C05 4909   3.891   1.451   1.060
  259EMI    H0B 4910   3.952   1.370   1.096
  259EMI    H0C 4911   3.801   1.412   1.019
  259EMI    H0D 4912   3.945   1.505   0.985
  259EMI    N00 4913   3.860   1.541   1.172
  259EMI    C06 4914   3.935   1.696   1.484
  259EMI    H0F 4915   3.994   1.783   1.467
  259EMI    C0N 4916   3.820   1.730   1.581
  259EMI    H0O 4917   3.861   1.765   1.674
  259EMI    H0P 4918   3.759   1.807   1.538
  259EMI    H0Q 4919   3.761   1.643   1.599
  259EMI    N02 4920   3.879   1.648   1.357
  259EMI    H0E 4921   3.996   1.619   1.527
  260EMI    C01 4922   3.504   0.194   1.142
  260EMI    C04 4923   3.312   0.134   1.244
  260EMI    C03 4924   3.298   0.106   1.114
  260EMI    H07 4925   3.603   0.231   1.124
  260EMI    H09 4926   3.240   0.118   1.321
  260EMI    H08 4927   3.213   0.063   1.066
  260EMI    C05 4928   3.455   0.134   0.907
  260EMI    H0B 4929   3.561   0.120   0.895
  260EMI    H0C 4930   3.403   0.051   0.866
  260EMI    H0D 4931   3.426   0.224   0.857
  260EMI    N00 4932   3.424   0.146   1.051
  260EMI    C06 4933   3.506   0.237   1.386
  260EMI    H0F 4934   3.483   0.340   1.400
  260EMI    C0N 4935   3.448   0.154   1.502
  260EMI    H0O 4936   3.492   0.188   1.594
  260EMI    H0P 4937   3.342   0.167   1.506
  260EMI    H0Q 4938   3.471   0.051   1.488
  260EMI    N02 4939   3.446   0.191   1.259
  260EMI    H0E 4940   3.612   0.224   1.382
  261EMI    C01 4941   4.486   4.209   0.938
  261EMI    C04 4942   4.602   4.262   0.752
  261EMI    C03 4943   4.684   4.191   0.830
  261EMI    H07 4944   4.408   4.200   1.011
  261EMI    H09 4945   4.624   4.303   0.655
  261EMI    H08 4946   4.785   4.164   0.810
  261EMI    C05 4947   4.655   4.081   1.065
  261EMI    H0B 4948   4.573   4.028   1.110
  261EMI    H0C 4949   4.729   4.011   1.032
  261EMI    H0D 4950   4.698   4.147   1.137
  261EMI    N00 4951   4.606   4.158   0.950
  261EMI    C06 4952   4.354   4.341   0.776
  261EMI    H0F 4953   4.356   4.443   0.808
  261EMI    C0N 4954   4.350   4.335   0.622
  261EMI    H0O 4955   4.262   4.386   0.587
  261EMI    H0P 4956   4.437   4.383   0.582
  261EMI    H0Q 4957   4.347   4.233   0.590
  261EMI    N02 4958   4.475   4.271   0.824
  261EMI    H0E 4959   4.267   4.293   0.816
  262EMI    C01 4960   2.815   4.784   2.582
  262EMI    C04 4961   2.799   4.909   2.395
  262EMI    C03 4962   2.811   4.993   2.498
  262EMI    H07 4963   2.821   4.701   2.649
  262EMI    H09 4964   2.789   4.935   2.291
  262EMI    H08 4965   2.812   5.100   2.494
  262EMI    C05 4966   2.835   4.958   2.756
  262EMI    H0B 4967   2.890   4.887   2.813
  262EMI    H0C 4968   2.887   5.052   2.755
  262EMI    H0D 4969   2.738   4.972   2.799
  262EMI    N00 4970   2.821   4.909   2.618
  262EMI    C06 4971   2.793   4.649   2.376
  262EMI    H0F 4972   2.690   4.620   2.367
  262EMI    C0N 4973   2.853   4.669   2.236
  262EMI    H0O 4974   2.846   4.578   2.180
  262EMI    H0P 4975   2.798   4.746   2.185
  262EMI    H0Q 4976   2.955   4.698   2.244
  262EMI    N02 4977   2.802   4.774   2.452
  262EMI    H0E 4978   2.847   4.572   2.427
  263EMI    C01 4979   4.511   4.245   2.003
  263EMI    C04 4980   4.494   4.106   1.826
  263EMI    C03 4981   4.421   4.053   1.925
  263EMI    H07 4982   4.538   4.327   2.066
  263EMI    H09 4983   4.508   4.066   1.728
  263EMI    H08 4984   4.365   3.962   1.922
  263EMI    C05 4985   4.371   4.128   2.170
  263EMI    H0B 4986   4.352   4.224   2.213
  263EMI    H0C 4987   4.279   4.075   2.159
  263EMI    H0D 4988   4.437   4.073   2.234
  263EMI    N00 4989   4.434   4.145   2.038
  263EMI    C06 4990   4.638   4.322   1.806
  263EMI    H0F 4991   4.740   4.294   1.820
  263EMI    C0N 4992   4.604   4.317   1.656
  263EMI    H0O 4993   4.668   4.384   1.602
  263EMI    H0P 4994   4.619   4.217   1.619
  263EMI    H0Q 4995   4.502   4.346   1.641
  263EMI    N02 4996   4.551   4.230   1.879
  263EMI    H0E 4997   4.624   4.422   1.842
  264EMI    C01 4998   4.577   0.733   1.577
  264EMI    C04 4999   4.614   0.632   1.775
  264EMI    C03 5000   4.722   0.611   1.699
  264EMI    H07 5001   4.532   0.788   1.498
  264EMI    H09 5002   4.599   0.598   1.876
  264EMI    H08 5003   4.810   0.556   1.726
  264EMI    C05 5004   4.786   0.681   1.456
  264EMI    H0B 5005   4.771   0.771   1.401
  264EMI    H0C 5006   4.888   0.677   1.490
  264EMI    H0D 5007   4.767   0.597   1.393
  264EMI    N00 5008   4.695   0.677   1.572
  264EMI    C06 5009   4.390   0.759   1.736
  264EMI    H0F 5010   4.316   0.685   1.711
  264EMI    C0N 5011   4.390   0.781   1.889
  264EMI    H0O 5012   4.293   0.816   1.919
  264EMI    H0P 5013   4.412   0.689   1.938
  264EMI    H0Q 5014   4.463   0.855   1.914
  264EMI    N02 5015   4.522   0.711   1.694
  264EMI    H0E 5016   4.367   0.851   1.686
  265EMI    C01 5017   2.494   2.500   4.992
  265EMI    C04 5018   2.453   2.717   5.040
  265EMI    C03 5019   2.342   2.649   5.068
  265EMI    H07 5020   2.542   2.410   4.961
  265EMI    H09 5021   2.468   2.822   5.051
  265EMI    H08 5022   2.250   2.688   5.106
  265EMI    C05 5023   2.278   2.396   5.050
  265EMI    H0B 5024   2.333   2.307   5.071
  265EMI    H0C 5025   2.210   2.416   5.131
  265EMI    H0D 5026   2.223   2.383   4.960
  265EMI    N00 5027   2.371   2.509   5.036
  265EMI    C06 5028   2.688   2.648   4.948
  265EMI    H0F 5029   2.688   2.670   4.843
  265EMI    C0N 5030   2.741   2.770   5.026
  265EMI    H0O 5031   2.841   2.791   4.995
  265EMI    H0P 5032   2.679   2.855   5.007
  265EMI    H0Q 5033   2.740   2.748   5.131
  265EMI    N02 5034   2.550   2.619   4.991
  265EMI    H0E 5035   2.750   2.563   4.967
  266EMI    C01 5036   4.491   2.935   1.878
  266EMI    C04 5037   4.284   2.848   1.859
  266EMI    C03 5038   4.338   2.796   1.970
  266EMI    H07 5039   4.580   2.991   1.860
  266EMI    H09 5040   4.186   2.828   1.820
  266EMI    H08 5041   4.293   2.726   2.038
  266EMI    C05 5042   4.570   2.826   2.086
  266EMI    H0B 5043   4.632   2.913   2.101
  266EMI    H0C 5044   4.518   2.804   2.177
  266EMI    H0D 5045   4.631   2.743   2.058
  266EMI    N00 5046   4.472   2.854   1.980
  266EMI    C06 5047   4.369   3.016   1.679
  266EMI    H0F 5048   4.403   2.959   1.595
  266EMI    C0N 5049   4.221   3.053   1.660
  266EMI    H0O 5050   4.210   3.111   1.571
  266EMI    H0P 5051   4.163   2.964   1.653
  266EMI    H0Q 5052   4.187   3.111   1.744
  266EMI    N02 5053   4.385   2.937   1.802
  266EMI    H0E 5054   4.427   3.105   1.687
  267EMI    C01 5055   0.336   0.676   3.458
  267EMI    C04 5056   0.178   0.809   3.548
  267EMI    C03 5057   0.177   0.695   3.618
  267EMI    H07 5058   0.414   0.638   3.397
  267EMI    H09 5059   0.115   0.895   3.564
  267EMI    H08 5060   0.114   0.670   3.700
  267EMI    C05 5061   0.316   0.474   3.600
  267EMI    H0B 5062   0.419   0.456   3.580
  267EMI    H0C 5063   0.298   0.465   3.705
  267EMI    H0D 5064   0.256   0.403   3.547
  267EMI    N00 5065   0.280   0.610   3.557
  267EMI    C06 5066   0.319   0.895   3.346
  267EMI    H0F 5067   0.259   0.882   3.258
  267EMI    C0N 5068   0.294   1.036   3.403
  267EMI    H0O 5069   0.321   1.109   3.330
  267EMI    H0P 5070   0.190   1.046   3.428
  267EMI    H0Q 5071   0.354   1.049   3.491
  267EMI    N02 5072   0.282   0.794   3.446
  267EMI    H0E 5073   0.422   0.884   3.321
  268EMI    C01 5074   2.276   2.488   2.019
  268EMI    C04 5075   2.341   2.514   2.234
  268EMI    C03 5076   2.356   2.385   2.203
  268EMI    H07 5077   2.240   2.507   1.920
  268EMI    H09 5078   2.362   2.561   2.328
  268EMI    H08 5079   2.393   2.307   2.267
  268EMI    C05 5080   2.313   2.246   1.986
  268EMI    H0B 5081   2.329   2.268   1.883
  268EMI    H0C 5082   2.391   2.182   2.021
  268EMI    H0D 5083   2.219   2.197   1.998
  268EMI    N00 5084   2.314   2.371   2.064
  268EMI    C06 5085   2.256   2.721   2.099
  268EMI    H0F 5086   2.154   2.737   2.127
  268EMI    C0N 5087   2.347   2.804   2.192
  268EMI    H0O 5088   2.324   2.908   2.182
  268EMI    H0P 5089   2.333   2.773   2.293
  268EMI    H0Q 5090   2.450   2.788   2.164
  268EMI    N02 5091   2.289   2.579   2.113
  268EMI    H0E 5092   2.271   2.752   1.998
  269EMI    C01 5093   2.596   4.548   3.496
  269EMI    C04 5094   2.812   4.498   3.454
  269EMI    C03 5095   2.743   4.384   3.444
  269EMI    H07 5096   2.506   4.601   3.518
  269EMI    H09 5097   2.918   4.511   3.441
  269EMI    H08 5098   2.782   4.287   3.421
  269EMI    C05 5099   2.490   4.326   3.472
  269EMI    H0B 5100   2.401   4.378   3.442
  269EMI    H0C 5101   2.510   4.246   3.403
  269EMI    H0D 5102   2.477   4.286   3.570
  269EMI    N00 5103   2.603   4.420   3.471
  269EMI    C06 5104   2.745   4.745   3.509
  269EMI    H0F 5105   2.767   4.762   3.612
  269EMI    C0N 5106   2.867   4.784   3.423
  269EMI    H0O 5107   2.889   4.888   3.438
  269EMI    H0P 5108   2.951   4.725   3.452
  269EMI    H0Q 5109   2.845   4.767   3.320
  269EMI    N02 5110   2.715   4.602   3.488
  269EMI    H0E 5111   2.661   4.804   3.480
  270EMI    C01 5112   4.125   1.973   2.296
  270EMI    C04 5113   3.964   2.113   2.223
  270EMI    C03 5114   4.080   2.160   2.178
  270EMI    H07 5115   4.176   1.892   2.344
  270EMI    H09 5116   3.867   2.155   2.207
  270EMI    H08 5117   4.096   2.247   2.118
  270EMI    C05 5118   4.327   2.079   2.202
  270EMI    H0B 5119   4.371   1.981   2.201
  270EMI    H0C 5120   4.344   2.127   2.107
  270EMI    H0D 5121   4.373   2.137   2.279
  270EMI    N00 5122   4.183   2.068   2.227
  270EMI    C06 5123   3.898   1.906   2.368
  270EMI    H0F 5124   3.885   1.941   2.469
  270EMI    C0N 5125   3.764   1.911   2.294
  270EMI    H0O 5126   3.693   1.848   2.344
  270EMI    H0P 5127   3.727   2.012   2.292
  270EMI    H0Q 5128   3.777   1.876   2.193
  270EMI    N02 5129   3.996   1.992   2.300
  270EMI    H0E 5130   3.935   1.805   2.370
  271EMI    C01 5131   1.030   1.213   1.051
  271EMI    C04 5132   1.142   1.318   1.217
  271EMI    C03 5133   1.012   1.346   1.232
  271EMI    H07 5134   1.007   1.154   0.964
  271EMI    H09 5135   1.223   1.352   1.278
  271EMI    H08 5136   0.968   1.407   1.308
  271EMI    C05 5137   0.797   1.279   1.099
  271EMI    H0B 5138   0.767   1.187   1.053
  271EMI    H0C 5139   0.746   1.291   1.193
  271EMI    H0D 5140   0.773   1.361   1.035
  271EMI    N00 5141   0.942   1.277   1.123
  271EMI    C06 5142   1.275   1.176   1.043
  271EMI    H0F 5143   1.315   1.243   0.971
  271EMI    C0N 5144   1.376   1.154   1.156
  271EMI    H0O 5145   1.467   1.113   1.116
  271EMI    H0P 5146   1.398   1.247   1.204
  271EMI    H0Q 5147   1.336   1.086   1.228
  271EMI    N02 5148   1.151   1.232   1.099
  271EMI    H0E 5149   1.253   1.082   0.996
  272EMI    C01 5150   2.616   2.935   3.512
  272EMI    C04 5151   2.602   2.710   3.498
  272EMI    C03 5152   2.686   2.738   3.598
  272EMI    H07 5153   2.602   3.039   3.495
  272EMI    H09 5154   2.572   2.613   3.464
  272EMI    H08 5155   2.738   2.668   3.660
  272EMI    C05 5156   2.774   2.961   3.700
  272EMI    H0B 5157   2.726   3.055   3.720
  272EMI    H0C 5158   2.785   2.906   3.791
  272EMI    H0D 5159   2.871   2.979   3.658
  272EMI    N00 5160   2.693   2.884   3.605
  272EMI    C06 5161   2.464   2.859   3.333
  272EMI    H0F 5162   2.518   2.862   3.241
  272EMI    C0N 5163   2.365   2.741   3.329
  272EMI    H0O 5164   2.296   2.755   3.248
  272EMI    H0P 5165   2.418   2.649   3.315
  272EMI    H0Q 5166   2.310   2.737   3.421
  272EMI    N02 5167   2.558   2.839   3.444
  272EMI    H0E 5168   2.411   2.950   3.347
  273EMI    C01 5169   3.730   2.772   2.288
  273EMI    C04 5170   3.666   2.701   2.493
  273EMI    C03 5171   3.634   2.831   2.484
  273EMI    H07 5172   3.770   2.775   2.189
  273EMI    H09 5173   3.650   2.637   2.576
  273EMI    H08 5174   3.587   2.891   2.559
  273EMI    C05 5175   3.662   3.010   2.296
  273EMI    H0B 5176   3.651   3.004   2.189
  273EMI    H0C 5177   3.576   3.056   2.338
  273EMI    H0D 5178   3.749   3.067   2.319
  273EMI    N00 5179   3.677   2.874   2.350
  273EMI    C06 5180   3.779   2.533   2.328
  273EMI    H0F 5181   3.882   2.526   2.356
  273EMI    C0N 5182   3.698   2.425   2.401
  273EMI    H0O 5183   3.735   2.328   2.375
  273EMI    H0P 5184   3.707   2.439   2.507
  273EMI    H0Q 5185   3.595   2.432   2.373
  273EMI    N02 5186   3.728   2.666   2.364
  273EMI    H0E 5187   3.769   2.519   2.222
  274EMI    C01 5188   0.951   3.281   1.289
  274EMI    C04 5189   0.840   3.467   1.350
  274EMI    C03 5190   0.760   3.363   1.377
  274EMI    H07 5191   1.025   3.214   1.252
  274EMI    H09 5192   0.818   3.571   1.367
  274EMI    H08 5193   0.662   3.367   1.419
  274EMI    C05 5194   0.786   3.105   1.346
  274EMI    H0B 5195   0.869   3.040   1.361
  274EMI    H0C 5196   0.719   3.097   1.429
  274EMI    H0D 5197   0.735   3.078   1.256
  274EMI    N00 5198   0.834   3.244   1.336
  274EMI    C06 5199   1.079   3.488   1.249
  274EMI    H0F 5200   1.068   3.513   1.145
  274EMI    C0N 5201   1.091   3.617   1.332
  274EMI    H0O 5202   1.176   3.673   1.300
  274EMI    H0P 5203   1.002   3.676   1.320
  274EMI    H0Q 5204   1.102   3.591   1.436
  274EMI    N02 5205   0.962   3.411   1.293
  274EMI    H0E 5206   1.168   3.429   1.261
  275EMI    C01 5207   4.436   3.564   2.451
  275EMI    C04 5208   4.472   3.369   2.344
  275EMI    C03 5209   4.364   3.424   2.289
  275EMI    H07 5210   4.445   3.648   2.517
  275EMI    H09 5211   4.517   3.275   2.318
  275EMI    H08 5212   4.305   3.384   2.210
  275EMI    C05 5213   4.234   3.646   2.333
  275EMI    H0B 5214   4.268   3.745   2.357
  275EMI    H0C 5215   4.207   3.641   2.230
  275EMI    H0D 5216   4.150   3.622   2.394
  275EMI    N00 5217   4.343   3.551   2.360
  275EMI    C06 5218   4.633   3.442   2.536
  275EMI    H0F 5219   4.603   3.390   2.625
  275EMI    C0N 5220   4.740   3.360   2.462
  275EMI    H0O 5221   4.825   3.346   2.526
  275EMI    H0P 5222   4.700   3.265   2.436
  275EMI    H0Q 5223   4.770   3.412   2.374
  275EMI    N02 5224   4.517   3.462   2.449
  275EMI    H0E 5225   4.674   3.538   2.563
  276EMI    C01 5226   3.028   2.883   1.177
  276EMI    C04 5227   3.085   2.772   0.989
  276EMI    C03 5228   3.133   2.702   1.093
  276EMI    H07 5229   2.988   2.956   1.245
  276EMI    H09 5230   3.093   2.747   0.885
  276EMI    H08 5231   3.189   2.611   1.088
  276EMI    C05 5232   3.127   2.738   1.351
  276EMI    H0B 5233   3.051   2.774   1.417
  276EMI    H0C 5234   3.134   2.632   1.358
  276EMI    H0D 5235   3.221   2.781   1.379
  276EMI    N00 5236   3.095   2.777   1.213
  276EMI    C06 5237   2.949   2.994   0.971
  276EMI    H0F 5238   3.018   3.072   0.947
  276EMI    C0N 5239   2.892   2.934   0.841
  276EMI    H0O 5240   2.841   3.011   0.786
  276EMI    H0P 5241   2.971   2.894   0.782
  276EMI    H0Q 5242   2.822   2.856   0.865
  276EMI    N02 5243   3.017   2.888   1.047
  276EMI    H0E 5244   2.869   3.034   1.030
  277EMI    C01 5245   4.882   0.399   3.343
  277EMI    C04 5246   5.047   0.323   3.209
  277EMI    C03 5247   4.985   0.216   3.260
  277EMI    H07 5248   4.816   0.463   3.397
  277EMI    H09 5249   5.130   0.323   3.141
  277EMI    H08 5250   5.009   0.113   3.242
  277EMI    C05 5251   4.784   0.187   3.424
  277EMI    H0B 5252   4.692   0.239   3.435
  277EMI    H0C 5253   4.767   0.094   3.374
  277EMI    H0D 5254   4.825   0.167   3.522
  277EMI    N00 5255   4.879   0.268   3.347
  277EMI    C06 5256   5.011   0.580   3.237
  277EMI    H0F 5257   5.083   0.615   3.308
  277EMI    C0N 5258   5.070   0.591   3.095
  277EMI    H0O 5259   5.095   0.693   3.074
  277EMI    H0P 5260   5.159   0.531   3.088
  277EMI    H0Q 5261   4.998   0.557   3.023
  277EMI    N02 5262   4.978   0.440   3.265
  277EMI    H0E 5263   4.923   0.640   3.243
  278EMI    C01 5264   0.621   2.221   3.758
  278EMI    C04 5265   0.798   2.340   3.683
  278EMI    C03 5266   0.715   2.323   3.579
  278EMI    H07 5267   0.554   2.166   3.820
  278EMI    H09 5268   0.891   2.392   3.682
  278EMI    H08 5269   0.728   2.359   3.479
  278EMI    C05 5270   0.485   2.203   3.553
  278EMI    H0B 5271   0.399   2.197   3.617
  278EMI    H0C 5272   0.466   2.274   3.475
  278EMI    H0D 5273   0.504   2.107   3.509
  278EMI    N00 5274   0.601   2.246   3.631
  278EMI    C06 5275   0.790   2.265   3.933
  278EMI    H0F 5276   0.851   2.178   3.942
  278EMI    C0N 5277   0.875   2.390   3.961
  278EMI    H0O 5278   0.916   2.385   4.060
  278EMI    H0P 5279   0.955   2.395   3.890
  278EMI    H0Q 5280   0.814   2.478   3.952
  278EMI    N02 5281   0.735   2.273   3.797
  278EMI    H0E 5282   0.710   2.260   4.004
  279EMI    C01 5283   4.191   3.711   0.632
  279EMI    C04 5284   4.245   3.913   0.719
  279EMI    C03 5285   4.137   3.869   0.784
  279EMI    H07 5286   4.192   3.622   0.573
  279EMI    H09 5287   4.297   4.005   0.734
  279EMI    H08 5288   4.084   3.920   0.862
  279EMI    C05 5289   3.992   3.653   0.766
  279EMI    H0B 5290   4.018   3.550   0.750
  279EMI    H0C 5291   3.970   3.668   0.870
  279EMI    H0D 5292   3.906   3.677   0.708
  279EMI    N00 5293   4.104   3.739   0.726
  279EMI    C06 5294   4.391   3.812   0.526
  279EMI    H0F 5295   4.359   3.858   0.435
  279EMI    C0N 5296   4.506   3.894   0.587
  279EMI    H0O 5297   4.588   3.896   0.519
  279EMI    H0P 5298   4.473   3.993   0.607
  279EMI    H0Q 5299   4.538   3.848   0.679
  279EMI    N02 5300   4.278   3.808   0.621
  279EMI    H0E 5301   4.424   3.713   0.507
  280EMI    C01 5302   3.812   3.782   0.216
  280EMI    C04 5303   3.755   3.835   0.428
  280EMI    C03 5304   3.661   3.752   0.381
  280EMI    H07 5305   3.864   3.776   0.122
  280EMI    H09 5306   3.758   3.880   0.525
  280EMI    H08 5307   3.575   3.716   0.433
  280EMI    C05 5308   3.627   3.630   0.152
  280EMI    H0B 5309   3.697   3.583   0.085
  280EMI    H0C 5310   3.576   3.556   0.209
  280EMI    H0D 5311   3.557   3.688   0.096
  280EMI    N00 5312   3.701   3.719   0.244
  280EMI    C06 5313   3.972   3.936   0.324
  280EMI    H0F 5314   3.948   4.036   0.292
  280EMI    C0N 5315   4.024   3.941   0.469
  280EMI    H0O 5316   4.112   4.002   0.473
  280EMI    H0P 5317   3.949   3.983   0.533
  280EMI    H0Q 5318   4.048   3.842   0.502
  280EMI    N02 5319   3.851   3.853   0.319
  280EMI    H0E 5320   4.047   3.895   0.260
  281EMI    C01 5321   1.031   4.319   1.872
  281EMI    C04 5322   1.096   4.206   2.056
  281EMI    C03 5323   1.106   4.122   1.953
  281EMI    H07 5324   0.997   4.396   1.806
  281EMI    H09 5325   1.119   4.185   2.159
  281EMI    H08 5326   1.138   4.020   1.956
  281EMI    C05 5327   1.057   4.146   1.698
  281EMI    H0B 5328   1.074   4.226   1.629
  281EMI    H0C 5329   1.131   4.070   1.685
  281EMI    H0D 5330   0.960   4.104   1.680
  281EMI    N00 5331   1.063   4.198   1.835
  281EMI    C06 5332   1.022   4.456   2.078
  281EMI    H0F 5333   0.921   4.456   2.112
  281EMI    C0N 5334   1.117   4.461   2.199
  281EMI    H0O 5335   1.098   4.551   2.255
  281EMI    H0P 5336   1.100   4.376   2.261
  281EMI    H0Q 5337   1.219   4.461   2.165
  281EMI    N02 5338   1.048   4.333   2.001
  281EMI    H0E 5339   1.039   4.541   2.015
  282EMI    C01 5340   2.308   1.224   3.002
  282EMI    C04 5341   2.320   1.438   2.931
  282EMI    C03 5342   2.438   1.381   2.906
  282EMI    H07 5343   2.273   1.132   3.044
  282EMI    H09 5344   2.291   1.539   2.910
  282EMI    H08 5345   2.524   1.427   2.861
  282EMI    C05 5346   2.534   1.141   2.946
  282EMI    H0B 5347   2.490   1.044   2.936
  282EMI    H0C 5348   2.596   1.161   2.862
  282EMI    H0D 5349   2.593   1.145   3.036
  282EMI    N00 5350   2.428   1.242   2.953
  282EMI    C06 5351   2.099   1.350   3.039
  282EMI    H0F 5352   2.098   1.383   3.141
  282EMI    C0N 5353   2.028   1.455   2.951
  282EMI    H0O 5354   1.927   1.467   2.984
  282EMI    H0P 5355   2.080   1.549   2.959
  282EMI    H0Q 5356   2.029   1.423   2.849
  282EMI    N02 5357   2.237   1.334   2.994
  282EMI    H0E 5358   2.047   1.257   3.031
  283EMI    C01 5359   2.416   4.095   0.957
  283EMI    C04 5360   2.383   4.317   0.984
  283EMI    C03 5361   2.273   4.256   1.028
  283EMI    H07 5362   2.459   4.001   0.933
  283EMI    H09 5363   2.402   4.423   0.982
  283EMI    H08 5364   2.186   4.302   1.069
  283EMI    C05 5365   2.203   4.005   1.044
  283EMI    H0B 5366   2.257   3.917   1.070
  283EMI    H0C 5367   2.143   4.036   1.127
  283EMI    H0D 5368   2.140   3.984   0.960
  283EMI    N00 5369   2.297   4.112   1.009
  283EMI    C06 5370   2.608   4.231   0.881
  283EMI    H0F 5371   2.600   4.242   0.775
  283EMI    C0N 5372   2.670   4.359   0.941
  283EMI    H0O 5373   2.768   4.374   0.899
  283EMI    H0P 5374   2.608   4.443   0.917
  283EMI    H0Q 5375   2.678   4.349   1.047
  283EMI    N02 5376   2.474   4.211   0.938
  283EMI    H0E 5377   2.669   4.147   0.905
  284EMI    C01 5378   1.808   2.442   0.655
  284EMI    C04 5379   1.597   2.457   0.577
  284EMI    C03 5380   1.672   2.538   0.503
  284EMI    H07 5381   1.894   2.414   0.712
  284EMI    H09 5382   1.491   2.440   0.567
  284EMI    H08 5383   1.639   2.600   0.421
  284EMI    C05 5384   1.926   2.598   0.504
  284EMI    H0B 5385   2.014   2.539   0.520
  284EMI    H0C 5386   1.914   2.617   0.400
  284EMI    H0D 5387   1.936   2.691   0.556
  284EMI    N00 5388   1.808   2.527   0.555
  284EMI    C06 5389   1.649   2.298   0.778
  284EMI    H0F 5390   1.621   2.350   0.867
  284EMI    C0N 5391   1.529   2.215   0.728
  284EMI    H0O 5392   1.501   2.144   0.803
  284EMI    H0P 5393   1.447   2.280   0.708
  284EMI    H0Q 5394   1.557   2.163   0.639
  284EMI    N02 5395   1.687   2.396   0.675
  284EMI    H0E 5396   1.732   2.233   0.798
  285EMI    C01 5397   2.059   3.836   1.973
  285EMI    C04 5398   2.025   4.059   1.983
  285EMI    C03 5399   2.132   4.032   2.058
  285EMI    H07 5400   2.049   3.732   1.950
  285EMI    H09 5401   1.981   4.155   1.966
  285EMI    H08 5402   2.191   4.102   2.113
  285EMI    C05 5403   2.258   3.811   2.117
  285EMI    H0B 5404   2.283   3.725   2.059
  285EMI    H0C 5405   2.345   3.873   2.128
  285EMI    H0D 5406   2.225   3.780   2.214
  285EMI    N00 5407   2.152   3.887   2.050
  285EMI    C06 5408   1.864   3.910   1.841
  285EMI    H0F 5409   1.776   3.893   1.900
  285EMI    C0N 5410   1.843   4.036   1.754
  285EMI    H0O 5411   1.759   4.022   1.690
  285EMI    H0P 5412   1.826   4.121   1.818
  285EMI    H0Q 5413   1.931   4.053   1.695
  285EMI    N02 5414   1.979   3.930   1.929
  285EMI    H0E 5415   1.882   3.826   1.778
  286EMI    C01 5416   0.402   2.405   0.536
  286EMI    C04 5417   0.541   2.571   0.601
  286EMI    C03 5418   0.617   2.473   0.550
  286EMI    H07 5419   0.314   2.348   0.516
  286EMI    H09 5420   0.575   2.664   0.642
  286EMI    H08 5421   0.723   2.472   0.541
  286EMI    C05 5422   0.562   2.239   0.447
  286EMI    H0B 5423   0.483   2.206   0.382
  286EMI    H0C 5424   0.651   2.253   0.390
  286EMI    H0D 5425   0.578   2.166   0.523
  286EMI    N00 5426   0.524   2.367   0.509
  286EMI    C06 5427   0.283   2.599   0.635
  286EMI    H0F 5428   0.262   2.575   0.737
  286EMI    C0N 5429   0.310   2.750   0.622
  286EMI    H0O 5430   0.224   2.804   0.654
  286EMI    H0P 5431   0.394   2.776   0.684
  286EMI    H0Q 5432   0.332   2.774   0.520
  286EMI    N02 5433   0.402   2.524   0.591
  286EMI    H0E 5434   0.200   2.572   0.573
  287EMI    C01 5435   0.761   0.465   3.971
  287EMI    C04 5436   0.593   0.413   3.829
  287EMI    C03 5437   0.667   0.507   3.770
  287EMI    H07 5438   0.826   0.467   4.055
  287EMI    H09 5439   0.505   0.365   3.790
  287EMI    H08 5440   0.650   0.550   3.673
  287EMI    C05 5441   0.881   0.638   3.841
  287EMI    H0B 5442   0.970   0.607   3.893
  287EMI    H0C 5443   0.902   0.645   3.737
  287EMI    H0D 5444   0.849   0.733   3.878
  287EMI    N00 5445   0.775   0.539   3.864
  287EMI    C06 5446   0.610   0.291   4.059
  287EMI    H0F 5447   0.541   0.339   4.126
  287EMI    C0N 5448   0.539   0.173   3.989
  287EMI    H0O 5449   0.505   0.103   4.062
  287EMI    H0P 5450   0.456   0.210   3.933
  287EMI    H0Q 5451   0.608   0.125   3.922
  287EMI    N02 5452   0.656   0.387   3.959
  287EMI    H0E 5453   0.693   0.254   4.115
  288EMI    C01 5454   3.098   1.136   1.048
  288EMI    C04 5455   3.201   1.336   1.060
  288EMI    C03 5456   3.283   1.253   0.994
  288EMI    H07 5457   3.026   1.057   1.059
  288EMI    H09 5458   3.219   1.439   1.084
  288EMI    H08 5459   3.379   1.277   0.953
  288EMI    C05 5460   3.264   1.003   0.923
  288EMI    H0B 5461   3.182   0.944   0.887
  288EMI    H0C 5462   3.328   1.029   0.842
  288EMI    H0D 5463   3.320   0.945   0.995
  288EMI    N00 5464   3.213   1.125   0.987
  288EMI    C06 5465   2.965   1.307   1.168
  288EMI    H0F 5466   2.980   1.291   1.273
  288EMI    C0N 5467   2.947   1.457   1.140
  288EMI    H0O 5468   2.862   1.493   1.194
  288EMI    H0P 5469   3.034   1.510   1.172
  288EMI    H0Q 5470   2.932   1.473   1.035
  288EMI    N02 5471   3.082   1.257   1.094
  288EMI    H0E 5472   2.878   1.254   1.136
  289EMI    C01 5473   1.630   3.868   1.453
  289EMI    C04 5474   1.741   3.769   1.283
  289EMI    C03 5475   1.630   3.698   1.304
  289EMI    H07 5476   1.603   3.935   1.532
  289EMI    H09 5477   1.816   3.750   1.210
  289EMI    H08 5478   1.598   3.611   1.251
  289EMI    C05 5479   1.432   3.722   1.473
  289EMI    H0B 5480   1.379   3.807   1.511
  289EMI    H0C 5481   1.373   3.674   1.398
  289EMI    H0D 5482   1.450   3.654   1.553
  289EMI    N00 5483   1.560   3.765   1.415
  289EMI    C06 5484   1.841   3.983   1.395
  289EMI    H0F 5485   1.916   3.950   1.465
  289EMI    C0N 5486   1.907   4.009   1.258
  289EMI    H0O 5487   1.982   4.085   1.269
  289EMI    H0P 5488   1.952   3.919   1.222
  289EMI    H0Q 5489   1.833   4.042   1.189
  289EMI    N02 5490   1.739   3.879   1.381
  289EMI    H0E 5491   1.796   4.073   1.431
  290EMI    C01 5492   3.271   2.087   1.866
  290EMI    C04 5493   3.081   2.108   1.746
  290EMI    C03 5494   3.065   2.179   1.859
  290EMI    H07 5495   3.369   2.059   1.897
  290EMI    H09 5496   3.010   2.096   1.667
  290EMI    H08 5497   2.979   2.235   1.888
  290EMI    C05 5498   3.218   2.223   2.065
  290EMI    H0B 5499   3.323   2.242   2.074
  290EMI    H0C 5500   3.165   2.316   2.075
  290EMI    H0D 5501   3.187   2.156   2.143
  290EMI    N00 5502   3.189   2.163   1.934
  290EMI    C06 5503   3.277   1.964   1.652
  290EMI    H0F 5504   3.254   1.862   1.673
  290EMI    C0N 5505   3.221   2.001   1.513
  290EMI    H0O 5506   3.266   1.939   1.439
  290EMI    H0P 5507   3.115   1.988   1.512
  290EMI    H0Q 5508   3.244   2.104   1.492
  290EMI    N02 5509   3.215   2.050   1.754
  290EMI    H0E 5510   3.383   1.978   1.653
  291EMI    C01 5511   1.363   0.411   2.995
  291EMI    C04 5512   1.417   0.195   3.032
  291EMI    C03 5513   1.530   0.267   3.044
  291EMI    H07 5514   1.309   0.501   2.974
  291EMI    H09 5515   1.407   0.089   3.043
  291EMI    H08 5516   1.627   0.230   3.067
  291EMI    C05 5517   1.583   0.521   3.024
  291EMI    H0B 5518   1.529   0.609   3.055
  291EMI    H0C 5519   1.662   0.502   3.093
  291EMI    H0D 5520   1.624   0.538   2.926
  291EMI    N00 5521   1.492   0.406   3.020
  291EMI    C06 5522   1.170   0.258   2.977
  291EMI    H0F 5523   1.154   0.238   2.873
  291EMI    C0N 5524   1.132   0.134   3.060
  291EMI    H0O 5525   1.029   0.110   3.043
  291EMI    H0P 5526   1.194   0.051   3.030
  291EMI    H0Q 5527   1.148   0.154   3.164
  291EMI    N02 5528   1.311   0.291   3.000
  291EMI    H0E 5529   1.109   0.341   3.008
  292EMI    C01 5530   2.187   3.299   4.630
  292EMI    C04 5531   2.161   3.456   4.469
  292EMI    C03 5532   2.274   3.485   4.535
  292EMI    H07 5533   2.172   3.214   4.693
  292EMI    H09 5534   2.119   3.509   4.387
  292EMI    H08 5535   2.340   3.567   4.517
  292EMI    C05 5536   2.397   3.374   4.737
  292EMI    H0B 5537   2.414   3.271   4.763
  292EMI    H0C 5538   2.486   3.415   4.694
  292EMI    H0D 5539   2.371   3.429   4.825
  292EMI    N00 5540   2.288   3.382   4.639
  292EMI    C06 5541   1.984   3.265   4.493
  292EMI    H0F 5542   1.901   3.306   4.548
  292EMI    C0N 5543   1.960   3.285   4.342
  292EMI    H0O 5544   1.871   3.234   4.313
  292EMI    H0P 5545   1.951   3.389   4.321
  292EMI    H0Q 5546   2.043   3.244   4.287
  292EMI    N02 5547   2.107   3.335   4.533
  292EMI    H0E 5548   1.994   3.161   4.515
  293EMI    C01 5549   4.861   1.331   3.904
  293EMI    C04 5550   4.746   1.359   4.096
  293EMI    C03 5551   4.776   1.229   4.086
  293EMI    H07 5552   4.911   1.349   3.811
  293EMI    H09 5553   4.691   1.407   4.174
  293EMI    H08 5554   4.750   1.151   4.156
  293EMI    C05 5555   4.904   1.087   3.908
  293EMI    H0B 5556   4.992   1.107   3.851
  293EMI    H0C 5557   4.929   1.022   3.990
  293EMI    H0D 5558   4.831   1.041   3.846
  293EMI    N00 5559   4.850   1.214   3.961
  293EMI    C06 5560   4.794   1.565   3.944
  293EMI    H0F 5561   4.706   1.584   3.886
  293EMI    C0N 5562   4.789   1.647   4.074
  293EMI    H0O 5563   4.783   1.752   4.050
  293EMI    H0P 5564   4.703   1.619   4.130
  293EMI    H0Q 5565   4.877   1.629   4.131
  293EMI    N02 5566   4.802   1.422   3.976
  293EMI    H0E 5567   4.880   1.594   3.887
  294EMI    C01 5568   1.654   4.999   3.607
  294EMI    C04 5569   1.473   4.900   3.515
  294EMI    C03 5570   1.458   4.896   3.648
  294EMI    H07 5571   1.748   5.050   3.620
  294EMI    H09 5572   1.406   4.862   3.441
  294EMI    H08 5573   1.375   4.854   3.702
  294EMI    C05 5574   1.603   4.980   3.848
  294EMI    H0B 5575   1.661   5.069   3.862
  294EMI    H0C 5576   1.510   4.989   3.901
  294EMI    H0D 5577   1.657   4.896   3.886
  294EMI    N00 5578   1.576   4.961   3.705
  294EMI    C06 5579   1.661   4.995   3.360
  294EMI    H0F 5580   1.723   4.913   3.331
  294EMI    C0N 5581   1.549   5.014   3.256
  294EMI    H0O 5582   1.592   5.034   3.161
  294EMI    H0P 5583   1.489   4.925   3.251
  294EMI    H0Q 5584   1.487   5.096   3.285
  294EMI    N02 5585   1.601   4.968   3.492
  294EMI    H0E 5586   1.720   5.084   3.366
  295EMI    C01 5587   3.675   0.176   3.136
  295EMI    C04 5588   3.610   0.392   3.156
  295EMI    C03 5589   3.625   0.367   3.026
  295EMI    H07 5590   3.704   0.076   3.158
  295EMI    H09 5591   3.580   0.484   3.201
  295EMI    H08 5592   3.610   0.436   2.945
  295EMI    C05 5593   3.696   0.155   2.890
  295EMI    H0B 5594   3.674   0.051   2.903
  295EMI    H0C 5595   3.636   0.196   2.811
  295EMI    H0D 5596   3.800   0.166   2.866
  295EMI    N00 5597   3.668   0.227   3.015
  295EMI    C06 5598   3.641   0.245   3.371
  295EMI    H0F 5599   3.737   0.269   3.412
  295EMI    C0N 5600   3.534   0.337   3.434
  295EMI    H0O 5601   3.533   0.321   3.540
  295EMI    H0P 5602   3.558   0.439   3.413
  295EMI    H0Q 5603   3.438   0.313   3.393
  295EMI    N02 5604   3.644   0.266   3.225
  295EMI    H0E 5605   3.618   0.143   3.391
  296EMI    C01 5606   2.954   2.696   3.276
  296EMI    C04 5607   3.059   2.891   3.229
  296EMI    C03 5608   3.145   2.792   3.202
  296EMI    H07 5609   2.881   2.625   3.305
  296EMI    H09 5610   3.076   2.996   3.218
  296EMI    H08 5611   3.245   2.802   3.165
  296EMI    C05 5612   3.129   2.532   3.219
  296EMI    H0B 5613   3.050   2.463   3.197
  296EMI    H0C 5614   3.201   2.531   3.139
  296EMI    H0D 5615   3.177   2.503   3.310
  296EMI    N00 5616   3.074   2.667   3.233
  296EMI    C06 5617   2.814   2.895   3.318
  296EMI    H0F 5618   2.818   2.916   3.423
  296EMI    C0N 5619   2.800   3.027   3.240
  296EMI    H0O 5620   2.711   3.078   3.270
  296EMI    H0P 5621   2.885   3.090   3.260
  296EMI    H0Q 5622   2.795   3.006   3.135
  296EMI    N02 5623   2.936   2.826   3.276
  296EMI    H0E 5624   2.729   2.833   3.298
  297EMI    C01 5625   4.107   3.317   1.837
  297EMI    C04 5626   4.175   3.203   2.020
  297EMI    C03 5627   4.283   3.259   1.965
  297EMI    H07 5628   4.046   3.360   1.760
  297EMI    H09 5629   4.171   3.142   2.107
  297EMI    H08 5630   4.384   3.252   2.000
  297EMI    C05 5631   4.321   3.410   1.755
  297EMI    H0B 5632   4.264   3.491   1.714
  297EMI    H0C 5633   4.405   3.449   1.809
  297EMI    H0D 5634   4.355   3.347   1.676
  297EMI    N00 5635   4.236   3.332   1.847
  297EMI    C06 5636   3.921   3.204   1.956
  297EMI    H0F 5637   3.901   3.113   1.904
  297EMI    C0N 5638   3.896   3.185   2.106
  297EMI    H0O 5639   3.793   3.157   2.122
  297EMI    H0P 5640   3.960   3.108   2.144
  297EMI    H0Q 5641   3.916   3.277   2.158
  297EMI    N02 5642   4.062   3.243   1.935
  297EMI    H0E 5643   3.858   3.281   1.918
  298EMI    C01 5644   1.248   0.269   1.672
  298EMI    C04 5645   1.369   0.457   1.700
  298EMI    C03 5646   1.455   0.359   1.669
  298EMI    H07 5647   1.167   0.199   1.667
  298EMI    H09 5648   1.393   0.560   1.719
  298EMI    H08 5649   1.561   0.367   1.659
  298EMI    C05 5650   1.425   0.105   1.617
  298EMI    H0B 5651   1.350   0.051   1.562
  298EMI    H0C 5652   1.513   0.115   1.557
  298EMI    H0D 5653   1.448   0.051   1.707
  298EMI    N00 5654   1.373   0.238   1.652
  298EMI    C06 5655   1.110   0.465   1.731
  298EMI    H0F 5656   1.090   0.461   1.836
  298EMI    C0N 5657   1.121   0.612   1.687
  298EMI    H0O 5658   1.029   0.663   1.708
  298EMI    H0P 5659   1.201   0.660   1.740
  298EMI    H0Q 5660   1.141   0.617   1.582
  298EMI    N02 5661   1.236   0.396   1.701
  298EMI    H0E 5662   1.030   0.418   1.678
  299EMI    C01 5663   2.363   1.774   2.358
  299EMI    C04 5664   2.532   1.842   2.491
  299EMI    C03 5665   2.559   1.716   2.455
  299EMI    H07 5666   2.272   1.771   2.301
  299EMI    H09 5667   2.592   1.905   2.553
  299EMI    H08 5668   2.644   1.658   2.483
  299EMI    C05 5669   2.433   1.543   2.306
  299EMI    H0B 5670   2.379   1.553   2.214
  299EMI    H0C 5671   2.530   1.502   2.286
  299EMI    H0D 5672   2.379   1.477   2.371
  299EMI    N00 5673   2.447   1.675   2.369
  299EMI    C06 5674   2.336   2.006   2.438
  299EMI    H0F 5675   2.270   2.004   2.522
  299EMI    C0N 5676   2.440   2.118   2.458
  299EMI    H0O 5677   2.390   2.213   2.466
  299EMI    H0P 5678   2.496   2.100   2.547
  299EMI    H0Q 5679   2.507   2.121   2.374
  299EMI    N02 5680   2.405   1.877   2.427
  299EMI    H0E 5681   2.281   2.025   2.348
  300EMI    C01 5682   2.288   1.755   1.026
  300EMI    C04 5683   2.262   1.619   1.204
  300EMI    C03 5684   2.363   1.701   1.232
  300EMI    H07 5685   2.275   1.802   0.931
  300EMI    H09 5686   2.223   1.541   1.267
  300EMI    H08 5687   2.422   1.703   1.321
  300EMI    C05 5688   2.477   1.895   1.100
  300EMI    H0B 5689   2.438   1.972   1.037
  300EMI    H0C 5690   2.501   1.936   1.196
  300EMI    H0D 5691   2.566   1.855   1.055
  300EMI    N00 5692   2.378   1.788   1.115
  300EMI    C06 5693   2.104   1.592   0.998
  300EMI    H0F 5694   2.141   1.511   0.940
  300EMI    C0N 5695   2.000   1.539   1.099
  300EMI    H0O 5696   1.920   1.493   1.047
  300EMI    H0P 5697   2.047   1.467   1.164
  300EMI    H0Q 5698   1.963   1.620   1.158
  300EMI    N02 5699   2.215   1.656   1.071
  300EMI    H0E 5700   2.057   1.664   0.934
  301EMI    C01 5701   0.433   3.483   4.086
  301EMI    C04 5702   0.538   3.624   4.228
  301EMI    C03 5703   0.466   3.699   4.145
  301EMI    H07 5704   0.398   3.395   4.036
  301EMI    H09 5705   0.601   3.658   4.308
  301EMI    H08 5706   0.458   3.806   4.144
  301EMI    C05 5707   0.308   3.643   3.945
  301EMI    H0B 5708   0.236   3.565   3.930
  301EMI    H0C 5709   0.257   3.734   3.970
  301EMI    H0D 5710   0.364   3.657   3.855
  301EMI    N00 5711   0.399   3.605   4.054
  301EMI    C06 5712   0.574   3.366   4.252
  301EMI    H0F 5713   0.667   3.342   4.204
  301EMI    C0N 5714   0.599   3.395   4.401
  301EMI    H0O 5715   0.642   3.309   4.447
  301EMI    H0P 5716   0.666   3.478   4.410
  301EMI    H0Q 5717   0.507   3.419   4.449
  301EMI    N02 5718   0.515   3.485   4.188
  301EMI    H0E 5719   0.507   3.283   4.242
  302EMI    C01 5720   4.705   1.250   1.850
  302EMI    C04 5721   4.494   1.261   1.770
  302EMI    C03 5722   4.541   1.139   1.742
  302EMI    H07 5723   4.798   1.275   1.897
  302EMI    H09 5724   4.397   1.300   1.747
  302EMI    H08 5725   4.490   1.061   1.690
  302EMI    C05 5726   4.769   1.020   1.786
  302EMI    H0B 5727   4.835   1.021   1.870
  302EMI    H0C 5728   4.713   0.930   1.785
  302EMI    H0D 5729   4.827   1.027   1.696
  302EMI    N00 5730   4.678   1.135   1.794
  302EMI    C06 5731   4.597   1.468   1.892
  302EMI    H0F 5732   4.630   1.536   1.817
  302EMI    C0N 5733   4.451   1.502   1.931
  302EMI    H0O 5734   4.447   1.602   1.969
  302EMI    H0P 5735   4.388   1.494   1.845
  302EMI    H0Q 5736   4.418   1.434   2.007
  302EMI    N02 5737   4.602   1.331   1.841
  302EMI    H0E 5738   4.659   1.477   1.978
  303EMI    C01 5739   2.640   1.819   4.930
  303EMI    C04 5740   2.511   1.681   4.807
  303EMI    C03 5741   2.624   1.700   4.738
  303EMI    H07 5742   2.676   1.883   5.008
  303EMI    H09 5743   2.428   1.620   4.777
  303EMI    H08 5744   2.650   1.659   4.643
  303EMI    C05 5745   2.839   1.840   4.785
  303EMI    H0B 5746   2.896   1.857   4.875
  303EMI    H0C 5747   2.890   1.768   4.725
  303EMI    H0D 5748   2.830   1.932   4.731
  303EMI    N00 5749   2.706   1.790   4.820
  303EMI    C06 5750   2.423   1.767   5.037
  303EMI    H0F 5751   2.357   1.849   5.017
  303EMI    C0N 5752   2.343   1.636   5.042
  303EMI    H0O 5753   2.269   1.642   5.120
  303EMI    H0P 5754   2.294   1.620   4.948
  303EMI    H0Q 5755   2.409   1.554   5.062
  303EMI    N02 5756   2.524   1.758   4.930
  303EMI    H0E 5757   2.472   1.783   5.131
  304EMI    C01 5758   4.584   3.380   3.633
  304EMI    C04 5759   4.694   3.538   3.515
  304EMI    C03 5760   4.716   3.421   3.454
  304EMI    H07 5761   4.524   3.332   3.707
  304EMI    H09 5762   4.731   3.634   3.485
  304EMI    H08 5763   4.774   3.403   3.367
  304EMI    C05 5764   4.638   3.176   3.505
  304EMI    H0B 5765   4.545   3.136   3.540
  304EMI    H0C 5766   4.647   3.160   3.400
  304EMI    H0D 5767   4.719   3.127   3.556
  304EMI    N00 5768   4.643   3.320   3.533
  304EMI    C06 5769   4.558   3.608   3.726
  304EMI    H0F 5770   4.627   3.618   3.807
  304EMI    C0N 5771   4.541   3.744   3.656
  304EMI    H0O 5772   4.504   3.816   3.726
  304EMI    H0P 5773   4.636   3.776   3.618
  304EMI    H0Q 5774   4.471   3.734   3.575
  304EMI    N02 5775   4.608   3.509   3.630
  304EMI    H0E 5776   4.463   3.576   3.765
  305EMI    C01 5777   0.979   3.572   3.630
  305EMI    C04 5778   1.183   3.530   3.717
  305EMI    C03 5779   1.136   3.638   3.779
  305EMI    H07 5780   0.890   3.566   3.572
  305EMI    H09 5781   1.278   3.482   3.734
  305EMI    H08 5782   1.184   3.695   3.856
  305EMI    C05 5783   0.913   3.773   3.758
  305EMI    H0B 5784   0.812   3.742   3.744
  305EMI    H0C 5785   0.928   3.798   3.861
  305EMI    H0D 5786   0.933   3.858   3.697
  305EMI    N00 5787   1.004   3.663   3.721
  305EMI    C06 5788   1.089   3.374   3.530
  305EMI    H0F 5789   1.133   3.405   3.438
  305EMI    C0N 5790   1.175   3.264   3.595
  305EMI    H0O 5791   1.181   3.180   3.528
  305EMI    H0P 5792   1.274   3.302   3.613
  305EMI    H0Q 5793   1.131   3.233   3.687
  305EMI    N02 5794   1.080   3.489   3.621
  305EMI    H0E 5795   0.990   3.336   3.512
  306EMI    C01 5796   2.649   1.945   0.341
  306EMI    C04 5797   2.684   2.166   0.311
  306EMI    C03 5798   2.591   2.129   0.224
  306EMI    H07 5799   2.655   1.845   0.378
  306EMI    H09 5800   2.725   2.264   0.324
  306EMI    H08 5801   2.541   2.191   0.152
  306EMI    C05 5802   2.476   1.900   0.171
  306EMI    H0B 5803   2.442   1.821   0.234
  306EMI    H0C 5804   2.392   1.959   0.140
  306EMI    H0D 5805   2.525   1.859   0.085
  306EMI    N00 5806   2.570   1.985   0.245
  306EMI    C06 5807   2.820   2.038   0.494
  306EMI    H0F 5808   2.916   2.016   0.452
  306EMI    C0N 5809   2.826   2.173   0.568
  306EMI    H0O 5810   2.899   2.168   0.646
  306EMI    H0P 5811   2.854   2.250   0.498
  306EMI    H0Q 5812   2.730   2.196   0.609
  306EMI    N02 5813   2.720   2.045   0.386
  306EMI    H0E 5814   2.792   1.961   0.563
  307EMI    C01 5815   0.467   0.848   0.879
  307EMI    C04 5816   0.508   1.065   0.831
  307EMI    C03 5817   0.618   0.996   0.799
  307EMI    H07 5818   0.419   0.758   0.911
  307EMI    H09 5819   0.493   1.170   0.820
  307EMI    H08 5820   0.709   1.034   0.759
  307EMI    C05 5821   0.681   0.743   0.814
  307EMI    H0B 5822   0.625   0.654   0.794
  307EMI    H0C 5823   0.746   0.762   0.732
  307EMI    H0D 5824   0.739   0.729   0.903
  307EMI    N00 5825   0.589   0.856   0.832
  307EMI    C06 5826   0.276   0.997   0.929
  307EMI    H0F 5827   0.279   1.019   1.034
  307EMI    C0N 5828   0.221   1.119   0.853
  307EMI    H0O 5829   0.122   1.141   0.887
  307EMI    H0P 5830   0.285   1.204   0.871
  307EMI    H0Q 5831   0.219   1.098   0.748
  307EMI    N02 5832   0.412   0.967   0.882
  307EMI    H0E 5833   0.213   0.913   0.911
  308EMI    C01 5834   3.085   0.323   3.094
  308EMI    C04 5835   3.015   0.129   3.001
  308EMI    C03 5836   3.148   0.134   2.987
  308EMI    H07 5837   3.086   0.417   3.144
  308EMI    H09 5838   2.950   0.051   2.968
  308EMI    H08 5839   3.211   0.061   2.940
  308EMI    C05 5840   3.329   0.310   3.056
  308EMI    H0B 5841   3.340   0.370   3.144
  308EMI    H0C 5842   3.396   0.226   3.061
  308EMI    H0D 5843   3.351   0.368   2.969
  308EMI    N00 5844   3.190   0.261   3.048
  308EMI    C06 5845   2.840   0.290   3.109
  308EMI    H0F 5846   2.795   0.346   3.029
  308EMI    C0N 5847   2.757   0.163   3.135
  308EMI    H0O 5848   2.657   0.191   3.163
  308EMI    H0P 5849   2.754   0.104   3.047
  308EMI    H0Q 5850   2.802   0.107   3.215
  308EMI    N02 5851   2.977   0.252   3.071
  308EMI    H0E 5852   2.843   0.350   3.198
  309EMI    C01 5853   3.890   4.776   4.233
  309EMI    C04 5854   3.894   4.560   4.168
  309EMI    C03 5855   3.897   4.635   4.057
  309EMI    H07 5856   3.888   4.865   4.293
  309EMI    H09 5857   3.894   4.453   4.173
  309EMI    H08 5858   3.900   4.601   3.956
  309EMI    C05 5859   3.897   4.893   4.015
  309EMI    H0B 5860   3.945   4.974   4.066
  309EMI    H0C 5861   3.950   4.870   3.926
  309EMI    H0D 5862   3.797   4.921   3.991
  309EMI    N00 5863   3.895   4.775   4.102
  309EMI    C06 5864   3.885   4.617   4.422
  309EMI    H0F 5865   3.783   4.608   4.454
  309EMI    C0N 5866   3.958   4.483   4.443
  309EMI    H0O 5867   3.955   4.456   4.546
  309EMI    H0P 5868   3.910   4.407   4.385
  309EMI    H0Q 5869   4.060   4.493   4.412
  309EMI    N02 5870   3.890   4.654   4.280
  309EMI    H0E 5871   3.933   4.693   4.480
  310EMI    C01 5872   3.472   4.318   3.894
  310EMI    C04 5873   3.544   4.107   3.929
  310EMI    C03 5874   3.649   4.187   3.945
  310EMI    H07 5875   3.411   4.403   3.873
  310EMI    H09 5876   3.542   4.000   3.938
  310EMI    H08 5877   3.749   4.158   3.970
  310EMI    C05 5878   3.681   4.446   3.929
  310EMI    H0B 5879   3.619   4.528   3.960
  310EMI    H0C 5880   3.760   4.432   4.000
  310EMI    H0D 5881   3.722   4.467   3.833
  310EMI    N00 5882   3.600   4.323   3.922
  310EMI    C06 5883   3.293   4.149   3.870
  310EMI    H0F 5884   3.282   4.130   3.765
  310EMI    C0N 5885   3.265   4.021   3.949
  310EMI    H0O 5886   3.164   3.988   3.930
  310EMI    H0P 5887   3.333   3.944   3.920
  310EMI    H0Q 5888   3.276   4.040   4.054
  310EMI    N02 5889   3.431   4.194   3.896
  310EMI    H0E 5890   3.225   4.226   3.899
  311EMI    C01 5891   3.111   2.870   0.463
  311EMI    C04 5892   3.100   2.947   0.251
  311EMI    C03 5893   3.108   3.053   0.331
  311EMI    H07 5894   3.115   2.805   0.548
  311EMI    H09 5895   3.093   2.947   0.144
  311EMI    H08 5896   3.109   3.156   0.302
  311EMI    C05 5897   3.126   3.081   0.590
  311EMI    H0B 5898   3.180   3.026   0.665
  311EMI    H0C 5899   3.178   3.172   0.569
  311EMI    H0D 5900   3.028   3.103   0.627
  311EMI    N00 5901   3.116   3.000   0.468
  311EMI    C06 5902   3.095   2.689   0.295
  311EMI    H0F 5903   2.992   2.658   0.290
  311EMI    C0N 5904   3.158   2.676   0.155
  311EMI    H0O 5905   3.153   2.574   0.123
  311EMI    H0P 5906   3.105   2.738   0.086
  311EMI    H0Q 5907   3.261   2.707   0.159
  311EMI    N02 5908   3.102   2.829   0.339
  311EMI    H0E 5909   3.148   2.627   0.364
  312EMI    C01 5910   4.223   3.687   1.950
  312EMI    C04 5911   4.046   3.780   2.055
  312EMI    C03 5912   4.156   3.826   2.115
  312EMI    H07 5913   4.284   3.630   1.883
  312EMI    H09 5914   3.945   3.804   2.079
  312EMI    H08 5915   4.161   3.893   2.198
  312EMI    C05 5916   4.411   3.785   2.078
  312EMI    H0B 5917   4.470   3.774   1.989
  312EMI    H0C 5918   4.425   3.883   2.118
  312EMI    H0D 5919   4.443   3.712   2.149
  312EMI    N00 5920   4.269   3.764   2.046
  312EMI    C06 5921   4.007   3.617   1.854
  312EMI    H0F 5922   3.982   3.522   1.896
  312EMI    C0N 5923   3.877   3.697   1.831
  312EMI    H0O 5924   3.814   3.644   1.763
  312EMI    H0P 5925   3.825   3.710   1.924
  312EMI    H0Q 5926   3.901   3.793   1.789
  312EMI    N02 5927   4.093   3.691   1.948
  312EMI    H0E 5928   4.058   3.604   1.762
  313EMI    C01 5929   1.310   4.419   2.836
  313EMI    C04 5930   1.117   4.418   2.953
  313EMI    C03 5931   1.169   4.540   2.965
  313EMI    H07 5932   1.393   4.390   2.775
  313EMI    H09 5933   1.025   4.382   2.996
  313EMI    H08 5934   1.129   4.622   3.020
  313EMI    C05 5935   1.387   4.651   2.874
  313EMI    H0B 5936   1.437   4.644   2.779
  313EMI    H0C 5937   1.332   4.743   2.878
  313EMI    H0D 5938   1.459   4.649   2.952
  313EMI    N00 5939   1.294   4.538   2.889
  313EMI    C06 5940   1.193   4.201   2.828
  313EMI    H0F 5941   1.239   4.137   2.901
  313EMI    C0N 5942   1.043   4.168   2.818
  313EMI    H0O 5943   1.031   4.066   2.788
  313EMI    H0P 5944   0.997   4.183   2.913
  313EMI    H0Q 5945   0.997   4.232   2.746
  313EMI    N02 5946   1.210   4.342   2.869
  313EMI    H0E 5947   1.239   4.186   2.733
  314EMI    C01 5948   2.657   0.502   2.082
  314EMI    C04 5949   2.787   0.317   2.065
  314EMI    C03 5950   2.661   0.276   2.083
  314EMI    H07 5951   2.624   0.603   2.086
  314EMI    H09 5952   2.874   0.256   2.053
  314EMI    H08 5953   2.626   0.175   2.088
  314EMI    C05 5954   2.434   0.401   2.113
  314EMI    H0B 5955   2.394   0.489   2.067
  314EMI    H0C 5956   2.389   0.314   2.069
  314EMI    H0D 5957   2.412   0.403   2.218
  314EMI    N00 5958   2.579   0.397   2.093
  314EMI    C06 5959   2.896   0.554   2.048
  314EMI    H0F 5960   2.938   0.576   2.144
  314EMI    C0N 5961   3.003   0.485   1.961
  314EMI    H0O 5962   3.087   0.550   1.949
  314EMI    H0P 5963   3.035   0.394   2.008
  314EMI    H0Q 5964   2.961   0.463   1.865
  314EMI    N02 5965   2.781   0.464   2.065
  314EMI    H0E 5966   2.865   0.644   2.001
  315EMI    C01 5967   2.514   2.285   0.906
  315EMI    C04 5968   2.721   2.366   0.866
  315EMI    C03 5969   2.639   2.471   0.877
  315EMI    H07 5970   2.432   2.219   0.923
  315EMI    H09 5971   2.827   2.368   0.848
  315EMI    H08 5972   2.666   2.574   0.868
  315EMI    C05 5973   2.383   2.495   0.921
  315EMI    H0B 5974   2.316   2.442   0.986
  315EMI    H0C 5975   2.407   2.589   0.965
  315EMI    H0D 5976   2.336   2.510   0.826
  315EMI    N00 5977   2.506   2.416   0.903
  315EMI    C06 5978   2.685   2.108   0.883
  315EMI    H0F 5979   2.679   2.070   0.783
  315EMI    C0N 5980   2.831   2.102   0.931
  315EMI    H0O 5981   2.865   2.001   0.929
  315EMI    H0P 5982   2.892   2.162   0.867
  315EMI    H0Q 5983   2.837   2.140   1.031
  315EMI    N02 5984   2.638   2.247   0.886
  315EMI    H0E 5985   2.623   2.048   0.947
  316EMI    C01 5986   1.871   2.672   2.176
  316EMI    C04 5987   1.783   2.465   2.191
  316EMI    C03 5988   1.698   2.549   2.251
  316EMI    H07 5989   1.936   2.754   2.154
  316EMI    H09 5990   1.773   2.359   2.181
  316EMI    H08 5991   1.605   2.524   2.298
  316EMI    C05 5992   1.699   2.807   2.291
  316EMI    H0B 5993   1.729   2.889   2.229
  316EMI    H0C 5994   1.592   2.799   2.290
  316EMI    H0D 5995   1.732   2.823   2.391
  316EMI    N00 5996   1.757   2.682   2.240
  316EMI    C06 5997   2.013   2.499   2.072
  316EMI    H0F 5998   2.090   2.473   2.142
  316EMI    C0N 5999   1.975   2.374   1.990
  316EMI    H0O 6000   2.062   2.338   1.937
  316EMI    H0P 6001   1.939   2.298   2.055
  316EMI    H0Q 6002   1.899   2.400   1.919
  316EMI    N02 6003   1.895   2.548   2.144
  316EMI    H0E 6004   2.049   2.575   2.006
  317EMI    C01 6005   3.262   2.263   0.874
  317EMI    C04 6006   3.472   2.339   0.838
  317EMI    C03 6007   3.406   2.347   0.722
  317EMI    H07 6008   3.175   2.223   0.921
  317EMI    H09 6009   3.573   2.368   0.857
  317EMI    H08 6010   3.445   2.382   0.628
  317EMI    C05 6011   3.163   2.286   0.649
  317EMI    H0B 6012   3.069   2.298   0.698
  317EMI    H0C 6013   3.175   2.362   0.575
  317EMI    H0D 6014   3.167   2.189   0.602
  317EMI    N00 6015   3.271   2.296   0.748
  317EMI    C06 6016   3.403   2.259   1.077
  317EMI    H0F 6017   3.440   2.159   1.089
  317EMI    C0N 6018   3.509   2.359   1.128
  317EMI    H0O 6019   3.529   2.340   1.231
  317EMI    H0P 6020   3.599   2.348   1.071
  317EMI    H0Q 6021   3.472   2.459   1.116
  317EMI    N02 6022   3.376   2.285   0.935
  317EMI    H0E 6023   3.313   2.271   1.133
  318EMI    C01 6024   2.359   1.702   0.727
  318EMI    C04 6025   2.537   1.831   0.673
  318EMI    C03 6026   2.581   1.705   0.683
  318EMI    H07 6027   2.261   1.669   0.751
  318EMI    H09 6028   2.594   1.918   0.649
  318EMI    H08 6029   2.681   1.671   0.669
  318EMI    C05 6030   2.465   1.478   0.740
  318EMI    H0B 6031   2.369   1.438   0.713
  318EMI    H0C 6032   2.541   1.434   0.680
  318EMI    H0D 6033   2.483   1.458   0.843
  318EMI    N00 6034   2.464   1.624   0.718
  318EMI    C06 6035   2.302   1.941   0.701
  318EMI    H0F 6036   2.298   1.984   0.799
  318EMI    C0N 6037   2.352   2.046   0.601
  318EMI    H0O 6038   2.285   2.130   0.601
  318EMI    H0P 6039   2.450   2.079   0.629
  318EMI    H0Q 6040   2.355   2.003   0.503
  318EMI    N02 6041   2.393   1.826   0.701
  318EMI    H0E 6042   2.204   1.908   0.673
  319EMI    C01 6043   3.072   0.379   4.856
  319EMI    C04 6044   3.077   0.154   4.876
  319EMI    C03 6045   3.187   0.202   4.935
  319EMI    H07 6046   3.042   0.479   4.832
  319EMI    H09 6047   3.048   0.051   4.867
  319EMI    H08 6048   3.264   0.145   4.983
  319EMI    C05 6049   3.281   0.442   4.970
  319EMI    H0B 6050   3.234   0.535   4.994
  319EMI    H0C 6051   3.328   0.402   5.058
  319EMI    H0D 6052   3.355   0.459   4.895
  319EMI    N00 6053   3.181   0.347   4.921
  319EMI    C06 6054   2.876   0.268   4.754
  319EMI    H0F 6055   2.895   0.260   4.649
  319EMI    C0N 6056   2.794   0.146   4.800
  319EMI    H0O 6057   2.701   0.143   4.747
  319EMI    H0P 6058   2.849   0.056   4.780
  319EMI    H0Q 6059   2.775   0.153   4.905
  319EMI    N02 6060   3.004   0.271   4.826
  319EMI    H0E 6061   2.821   0.357   4.774
  320EMI    C01 6062   2.335   3.673   0.504
  320EMI    C04 6063   2.502   3.525   0.540
  320EMI    C03 6064   2.556   3.648   0.544
  320EMI    H07 6065   2.239   3.716   0.485
  320EMI    H09 6066   2.553   3.432   0.553
  320EMI    H08 6067   2.659   3.672   0.560
  320EMI    C05 6068   2.457   3.887   0.515
  320EMI    H0B 6069   2.366   3.932   0.548
  320EMI    H0C 6070   2.537   3.919   0.579
  320EMI    H0D 6071   2.477   3.918   0.414
  320EMI    N00 6072   2.446   3.741   0.520
  320EMI    C06 6073   2.259   3.438   0.502
  320EMI    H0F 6074   2.252   3.407   0.400
  320EMI    C0N 6075   2.302   3.318   0.589
  320EMI    H0O 6076   2.229   3.240   0.580
  320EMI    H0P 6077   2.397   3.281   0.556
  320EMI    H0Q 6078   2.309   3.348   0.691
  320EMI    N02 6079   2.359   3.545   0.514
  320EMI    H0E 6080   2.164   3.474   0.535
  321EMI    C01 6081   4.763   4.063   2.593
  321EMI    C04 6082   4.675   3.855   2.597
  321EMI    C03 6083   4.646   3.913   2.714
  321EMI    H07 6084   4.814   4.152   2.562
  321EMI    H09 6085   4.649   3.756   2.565
  321EMI    H08 6086   4.591   3.870   2.795
  321EMI    C05 6087   4.696   4.148   2.815
  321EMI    H0B 6088   4.697   4.246   2.772
  321EMI    H0C 6089   4.606   4.134   2.871
  321EMI    H0D 6090   4.780   4.137   2.881
  321EMI    N00 6091   4.704   4.047   2.709
  321EMI    C06 6092   4.806   3.936   2.386
  321EMI    H0F 6093   4.904   3.896   2.392
  321EMI    C0N 6094   4.716   3.838   2.307
  321EMI    H0O 6095   4.755   3.825   2.209
  321EMI    H0P 6096   4.713   3.744   2.358
  321EMI    H0Q 6097   4.617   3.878   2.301
  321EMI    N02 6098   4.751   3.955   2.521
  321EMI    H0E 6099   4.808   4.030   2.335
  322EMI    C01 6100   3.009   4.093   4.278
  322EMI    C04 6101   3.124   3.903   4.324
  322EMI    C03 6102   3.213   3.997   4.292
  322EMI    H07 6103   2.930   4.163   4.264
  322EMI    H09 6104   3.143   3.802   4.350
  322EMI    H08 6105   3.320   3.986   4.288
  322EMI    C05 6106   3.193   4.248   4.223
  322EMI    H0B 6107   3.130   4.327   4.258
  322EMI    H0C 6108   3.290   4.259   4.266
  322EMI    H0D 6109   3.201   4.253   4.116
  322EMI    N00 6110   3.137   4.119   4.263
  322EMI    C06 6111   2.863   3.903   4.340
  322EMI    H0F 6112   2.825   3.860   4.250
  322EMI    C0N 6113   2.882   3.792   4.445
  322EMI    H0O 6114   2.787   3.745   4.465
  322EMI    H0P 6115   2.951   3.719   4.409
  322EMI    H0Q 6116   2.919   3.835   4.536
  322EMI    N02 6117   2.992   3.968   4.314
  322EMI    H0E 6118   2.794   3.976   4.377
  323EMI    C01 6119   2.219   0.314   0.333
  323EMI    C04 6120   2.382   0.447   0.250
  323EMI    C03 6121   2.435   0.326   0.267
  323EMI    H07 6122   2.126   0.279   0.370
  323EMI    H09 6123   2.432   0.535   0.213
  323EMI    H08 6124   2.535   0.296   0.245
  323EMI    C05 6125   2.339   0.099   0.354
  323EMI    H0B 6126   2.244   0.051   0.340
  323EMI    H0C 6127   2.412   0.053   0.290
  323EMI    H0D 6128   2.369   0.089   0.456
  323EMI    N00 6129   2.327   0.242   0.320
  323EMI    C06 6130   2.145   0.547   0.294
  323EMI    H0F 6131   2.149   0.598   0.388
  323EMI    C0N 6132   2.178   0.645   0.180
  323EMI    H0O 6133   2.107   0.725   0.180
  323EMI    H0P 6134   2.276   0.685   0.195
  323EMI    H0Q 6135   2.174   0.594   0.086
  323EMI    N02 6136   2.243   0.437   0.294
  323EMI    H0E 6137   2.047   0.507   0.279
  324EMI    C01 6138   4.191   0.961   2.942
  324EMI    C04 6139   3.970   0.959   2.894
  324EMI    C03 6140   3.991   0.864   2.986
  324EMI    H07 6141   4.295   0.985   2.942
  324EMI    H09 6142   3.876   0.986   2.850
  324EMI    H08 6143   3.919   0.799   3.029
  324EMI    C05 6144   4.205   0.781   3.110
  324EMI    H0B 6145   4.290   0.833   3.150
  324EMI    H0C 6146   4.139   0.753   3.189
  324EMI    H0D 6147   4.239   0.692   3.059
  324EMI    N00 6148   4.135   0.868   3.015
  324EMI    C06 6149   4.126   1.130   2.773
  324EMI    H0F 6150   4.148   1.089   2.677
  324EMI    C0N 6151   4.001   1.219   2.763
  324EMI    H0O 6152   4.020   1.299   2.695
  324EMI    H0P 6153   3.918   1.161   2.729
  324EMI    H0Q 6154   3.979   1.260   2.860
  324EMI    N02 6155   4.100   1.020   2.868
  324EMI    H0E 6156   4.209   1.188   2.808
  325EMI    C01 6157   3.606   1.032   4.258
  325EMI    C04 6158   3.392   1.072   4.197
  325EMI    C03 6159   3.400   0.943   4.231
  325EMI    H07 6160   3.710   1.045   4.279
  325EMI    H09 6161   3.305   1.124   4.163
  325EMI    H08 6162   3.321   0.871   4.231
  325EMI    C05 6163   3.596   0.792   4.316
  325EMI    H0B 6164   3.677   0.811   4.384
  325EMI    H0C 6165   3.520   0.735   4.365
  325EMI    H0D 6166   3.632   0.737   4.232
  325EMI    N00 6167   3.540   0.920   4.270
  325EMI    C06 6168   3.566   1.266   4.189
  325EMI    H0F 6169   3.598   1.276   4.088
  325EMI    C0N 6170   3.445   1.359   4.214
  325EMI    H0O 6171   3.474   1.461   4.196
  325EMI    H0P 6172   3.365   1.332   4.148
  325EMI    H0Q 6173   3.413   1.349   4.316
  325EMI    N02 6174   3.526   1.127   4.215
  325EMI    H0E 6175   3.646   1.294   4.255
  326EMI    C01 6176   2.570   3.661   3.278
  326EMI    C04 6177   2.607   3.482   3.411
  326EMI    C03 6178   2.622   3.591   3.486
  326EMI    H07 6179   2.548   3.723   3.194
  326EMI    H09 6180   2.617   3.380   3.441
  326EMI    H08 6181   2.647   3.594   3.590
  326EMI    C05 6182   2.603   3.847   3.438
  326EMI    H0B 6183   2.535   3.904   3.378
  326EMI    H0C 6184   2.576   3.856   3.541
  326EMI    H0D 6185   2.703   3.884   3.424
  326EMI    N00 6186   2.598   3.706   3.398
  326EMI    C06 6187   2.547   3.446   3.159
  326EMI    H0F 6188   2.638   3.428   3.107
  326EMI    C0N 6189   2.487   3.312   3.205
  326EMI    H0O 6190   2.467   3.250   3.119
  326EMI    H0P 6191   2.556   3.262   3.270
  326EMI    H0Q 6192   2.395   3.330   3.257
  326EMI    N02 6193   2.573   3.531   3.276
  326EMI    H0E 6194   2.477   3.496   3.094
  327EMI    C01 6195   0.487   1.324   1.277
  327EMI    C04 6196   0.436   1.531   1.352
  327EMI    C03 6197   0.324   1.479   1.300
  327EMI    H07 6198   0.540   1.235   1.253
  327EMI    H09 6199   0.447   1.628   1.397
  327EMI    H08 6200   0.228   1.526   1.294
  327EMI    C05 6201   0.269   1.251   1.187
  327EMI    H0B 6202   0.300   1.150   1.209
  327EMI    H0C 6203   0.170   1.266   1.223
  327EMI    H0D 6204   0.271   1.266   1.081
  327EMI    N00 6205   0.360   1.345   1.252
  327EMI    C06 6206   0.680   1.441   1.379
  327EMI    H0F 6207   0.738   1.483   1.299
  327EMI    C0N 6208   0.688   1.533   1.502
  327EMI    H0O 6209   0.790   1.542   1.533
  327EMI    H0P 6210   0.649   1.630   1.477
  327EMI    H0Q 6211   0.630   1.491   1.582
  327EMI    N02 6212   0.540   1.429   1.336
  327EMI    H0E 6213   0.718   1.344   1.404
  328EMI    C01 6214   4.390   0.895   4.683
  328EMI    C04 6215   4.603   0.969   4.689
  328EMI    C03 6216   4.524   1.075   4.704
  328EMI    H07 6217   4.304   0.832   4.676
  328EMI    H09 6218   4.710   0.968   4.687
  328EMI    H08 6219   4.555   1.177   4.716
  328EMI    C05 6220   4.265   1.106   4.712
  328EMI    H0B 6221   4.187   1.047   4.757
  328EMI    H0C 6222   4.285   1.191   4.774
  328EMI    H0D 6223   4.234   1.139   4.615
  328EMI    N00 6224   4.387   1.024   4.700
  328EMI    C06 6225   4.556   0.714   4.656
  328EMI    H0F 6226   4.565   0.693   4.552
  328EMI    C0N 6227   4.693   0.692   4.724
  328EMI    H0O 6228   4.724   0.591   4.711
  328EMI    H0P 6229   4.765   0.758   4.681
  328EMI    H0Q 6230   4.684   0.713   4.829
  328EMI    N02 6231   4.514   0.853   4.675
  328EMI    H0E 6232   4.484   0.648   4.700
  329EMI    C01 6233   2.606   2.905   1.293
  329EMI    C04 6234   2.405   2.879   1.393
  329EMI    C03 6235   2.451   3.000   1.428
  329EMI    H07 6236   2.694   2.887   1.235
  329EMI    H09 6237   2.312   2.834   1.423
  329EMI    H08 6238   2.403   3.072   1.490
  329EMI    C05 6239   2.669   3.131   1.370
  329EMI    H0B 6240   2.726   3.140   1.280
  329EMI    H0C 6241   2.610   3.219   1.384
  329EMI    H0D 6242   2.736   3.119   1.453
  329EMI    N00 6243   2.581   3.014   1.361
  329EMI    C06 6244   2.500   2.687   1.244
  329EMI    H0F 6245   2.544   2.614   1.310
  329EMI    C0N 6246   2.353   2.650   1.218
  329EMI    H0O 6247   2.348   2.553   1.173
  329EMI    H0P 6248   2.299   2.649   1.311
  329EMI    H0Q 6249   2.309   2.722   1.153
  329EMI    N02 6250   2.507   2.820   1.307
  329EMI    H0E 6251   2.554   2.688   1.152
  330EMI    C01 6252   0.560   0.168   1.381
  330EMI    C04 6253   0.442   0.303   1.244
  330EMI    C03 6254   0.384   0.308   1.365
  330EMI    H07 6255   0.634   0.100   1.419
  330EMI    H09 6256   0.411   0.356   1.156
  330EMI    H08 6257   0.297   0.364   1.392
  330EMI    C05 6258   0.436   0.193   1.593
  330EMI    H0B 6259   0.528   0.171   1.643
  330EMI    H0C 6260   0.390   0.278   1.638
  330EMI    H0D 6261   0.371   0.108   1.602
  330EMI    N00 6262   0.463   0.219   1.451
  330EMI    C06 6263   0.650   0.176   1.150
  330EMI    H0F 6264   0.614   0.090   1.099
  330EMI    C0N 6265   0.662   0.294   1.052
  330EMI    H0O 6266   0.731   0.268   0.974
  330EMI    H0P 6267   0.566   0.315   1.009
  330EMI    H0Q 6268   0.699   0.380   1.103
  330EMI    N02 6269   0.556   0.212   1.258
  330EMI    H0E 6270   0.746   0.155   1.193
  331EMI    C01 6271   1.422   2.632   1.946
  331EMI    C04 6272   1.488   2.427   1.877
  331EMI    C03 6273   1.522   2.514   1.781
  331EMI    H07 6274   1.381   2.712   2.004
  331EMI    H09 6275   1.505   2.321   1.878
  331EMI    H08 6276   1.571   2.492   1.689
  331EMI    C05 6277   1.494   2.772   1.755
  331EMI    H0B 6278   1.503   2.852   1.825
  331EMI    H0C 6279   1.581   2.767   1.694
  331EMI    H0D 6280   1.408   2.788   1.694
  331EMI    N00 6281   1.478   2.645   1.828
  331EMI    C06 6282   1.370   2.453   2.109
  331EMI    H0F 6283   1.267   2.426   2.095
  331EMI    C0N 6284   1.451   2.329   2.151
  331EMI    H0O 6285   1.412   2.290   2.243
  331EMI    H0P 6286   1.444   2.254   2.075
  331EMI    H0Q 6287   1.553   2.356   2.165
  331EMI    N02 6288   1.424   2.506   1.983
  331EMI    H0E 6289   1.377   2.528   2.185
  332EMI    C01 6290   1.279   2.459   3.740
  332EMI    C04 6291   1.366   2.385   3.934
  332EMI    C03 6292   1.425   2.501   3.907
  332EMI    H07 6293   1.222   2.467   3.650
  332EMI    H09 6294   1.383   2.322   4.020
  332EMI    H08 6295   1.500   2.551   3.965
  332EMI    C05 6296   1.402   2.671   3.710
  332EMI    H0B 6297   1.317   2.706   3.655
  332EMI    H0C 6298   1.432   2.745   3.781
  332EMI    H0D 6299   1.483   2.652   3.642
  332EMI    N00 6300   1.367   2.547   3.780
  332EMI    C06 6301   1.184   2.243   3.812
  332EMI    H0F 6302   1.234   2.165   3.759
  332EMI    C0N 6303   1.146   2.192   3.953
  332EMI    H0O 6304   1.082   2.107   3.944
  332EMI    H0P 6305   1.235   2.164   4.006
  332EMI    H0Q 6306   1.095   2.269   4.006
  332EMI    N02 6307   1.272   2.360   3.825
  332EMI    H0E 6308   1.095   2.271   3.760
  333EMI    C01 6309   0.260   4.146   2.515
  333EMI    C04 6310   0.418   4.113   2.358
  333EMI    C03 6311   0.387   3.994   2.409
  333EMI    H07 6312   0.189   4.192   2.581
  333EMI    H09 6313   0.489   4.134   2.281
  333EMI    H08 6314   0.429   3.899   2.382
  333EMI    C05 6315   0.221   3.915   2.594
  333EMI    H0B 6316   0.121   3.946   2.619
  333EMI    H0C 6317   0.217   3.823   2.540
  333EMI    H0D 6318   0.277   3.902   2.684
  333EMI    N00 6319   0.285   4.018   2.511
  333EMI    C06 6320   0.332   4.355   2.406
  333EMI    H0F 6321   0.404   4.402   2.470
  333EMI    C0N 6322   0.368   4.384   2.259
  333EMI    H0O 6323   0.368   4.490   2.242
  333EMI    H0P 6324   0.466   4.346   2.237
  333EMI    H0Q 6325   0.297   4.337   2.194
  333EMI    N02 6326   0.334   4.210   2.429
  333EMI    H0E 6327   0.235   4.394   2.427
  334EMI    C01 6328   4.677   2.986   0.182
  334EMI    C04 6329   4.892   2.931   0.222
  334EMI    C03 6330   4.884   3.065   0.222
  334EMI    H07 6331   4.572   2.980   0.162
  334EMI    H09 6332   4.980   2.872   0.237
  334EMI    H08 6333   4.964   3.134   0.237
  334EMI    C05 6334   4.687   3.233   0.187
  334EMI    H0B 6335   4.585   3.231   0.219
  334EMI    H0C 6336   4.743   3.299   0.249
  334EMI    H0D 6337   4.692   3.267   0.085
  334EMI    N00 6338   4.744   3.097   0.196
  334EMI    C06 6339   4.716   2.742   0.187
  334EMI    H0F 6340   4.725   2.709   0.085
  334EMI    C0N 6341   4.807   2.657   0.277
  334EMI    H0O 6342   4.778   2.554   0.270
  334EMI    H0P 6343   4.909   2.667   0.244
  334EMI    H0Q 6344   4.798   2.690   0.378
  334EMI    N02 6345   4.756   2.883   0.196
  334EMI    H0E 6346   4.614   2.732   0.219
  335EMI    C01 6347   1.737   1.598   1.315
  335EMI    C04 6348   1.597   1.775   1.335
  335EMI    C03 6349   1.521   1.665   1.323
  335EMI    H07 6350   1.825   1.538   1.308
  335EMI    H09 6351   1.564   1.876   1.347
  335EMI    H08 6352   1.414   1.661   1.323
  335EMI    C05 6353   1.576   1.412   1.295
  335EMI    H0B 6354   1.651   1.349   1.338
  335EMI    H0C 6355   1.482   1.394   1.344
  335EMI    H0D 6356   1.566   1.389   1.191
  335EMI    N00 6357   1.614   1.553   1.310
  335EMI    C06 6358   1.856   1.814   1.339
  335EMI    H0F 6359   1.884   1.846   1.241
  335EMI    C0N 6360   1.824   1.937   1.426
  335EMI    H0O 6361   1.911   1.999   1.432
  335EMI    H0P 6362   1.744   1.992   1.381
  335EMI    H0Q 6363   1.796   1.905   1.524
  335EMI    N02 6364   1.736   1.728   1.329
  335EMI    H0E 6365   1.936   1.758   1.383
  336EMI    C01 6366   4.078   3.899   2.503
  336EMI    C04 6367   4.232   3.823   2.649
  336EMI    C03 6368   4.118   3.758   2.675
  336EMI    H07 6369   4.029   3.953   2.424
  336EMI    H09 6370   4.326   3.812   2.700
  336EMI    H08 6371   4.102   3.684   2.750
  336EMI    C05 6372   3.879   3.767   2.569
  336EMI    H0B 6373   3.846   3.776   2.468
  336EMI    H0C 6374   3.871   3.665   2.601
  336EMI    H0D 6375   3.819   3.829   2.632
  336EMI    N00 6376   4.020   3.809   2.579
  336EMI    C06 6377   4.299   4.005   2.474
  336EMI    H0F 6378   4.296   4.100   2.524
  336EMI    C0N 6379   4.441   3.946   2.485
  336EMI    H0O 6380   4.511   4.013   2.439
  336EMI    H0P 6381   4.467   3.933   2.588
  336EMI    H0Q 6382   4.444   3.852   2.435
  336EMI    N02 6383   4.203   3.913   2.537
  336EMI    H0E 6384   4.273   4.018   2.371
  337EMI    C01 6385   0.515   3.510   1.538
  337EMI    C04 6386   0.489   3.579   1.325
  337EMI    C03 6387   0.435   3.457   1.334
  337EMI    H07 6388   0.541   3.506   1.642
  337EMI    H09 6389   0.493   3.641   1.238
  337EMI    H08 6390   0.389   3.401   1.255
  337EMI    C05 6391   0.411   3.286   1.530
  337EMI    H0B 6392   0.388   3.299   1.634
  337EMI    H0C 6393   0.324   3.251   1.478
  337EMI    H0D 6394   0.490   3.214   1.520
  337EMI    N00 6395   0.454   3.415   1.473
  337EMI    C06 6396   0.607   3.736   1.497
  337EMI    H0F 6397   0.712   3.726   1.482
  337EMI    C0N 6398   0.554   3.851   1.410
  337EMI    H0O 6399   0.603   3.942   1.438
  337EMI    H0P 6400   0.573   3.830   1.307
  337EMI    H0Q 6401   0.448   3.862   1.425
  337EMI    N02 6402   0.539   3.611   1.458
  337EMI    H0E 6403   0.587   3.757   1.600
  338EMI    C01 6404   0.970   1.051   4.399
  338EMI    C04 6405   0.874   0.950   4.221
  338EMI    C03 6406   0.778   0.967   4.313
  338EMI    H07 6407   1.041   1.096   4.464
  338EMI    H09 6408   0.863   0.904   4.125
  338EMI    H08 6409   0.675   0.939   4.305
  338EMI    C05 6410   0.777   1.073   4.552
  338EMI    H0B 6411   0.826   1.159   4.593
  338EMI    H0C 6412   0.674   1.096   4.532
  338EMI    H0D 6413   0.782   0.992   4.622
  338EMI    N00 6414   0.843   1.033   4.427
  338EMI    C06 6415   1.129   1.007   4.215
  338EMI    H0F 6416   1.182   0.917   4.239
  338EMI    C0N 6417   1.110   1.016   4.062
  338EMI    H0O 6418   1.206   1.018   4.015
  338EMI    H0P 6419   1.055   0.932   4.027
  338EMI    H0Q 6420   1.057   1.106   4.038
  338EMI    N02 6421   0.997   1.004   4.280
  338EMI    H0E 6422   1.184   1.092   4.249
  339EMI    C01 6423   2.160   4.113   1.430
  339EMI    C04 6424   2.215   4.294   1.307
  339EMI    C03 6425   2.304   4.198   1.278
  339EMI    H07 6426   2.110   4.047   1.498
  339EMI    H09 6427   2.212   4.393   1.267
  339EMI    H08 6428   2.386   4.205   1.210
  339EMI    C05 6429   2.334   3.952   1.361
  339EMI    H0B 6430   2.263   3.875   1.382
  339EMI    H0C 6431   2.378   3.934   1.265
  339EMI    H0D 6432   2.410   3.953   1.436
  339EMI    N00 6433   2.265   4.082   1.359
  339EMI    C06 6434   2.009   4.306   1.467
  339EMI    H0F 6435   2.041   4.355   1.556
  339EMI    C0N 6436   1.953   4.410   1.368
  339EMI    H0O 6437   1.870   4.460   1.413
  339EMI    H0P 6438   2.030   4.481   1.345
  339EMI    H0Q 6439   1.921   4.361   1.279
  339EMI    N02 6440   2.123   4.237   1.406
  339EMI    H0E 6441   1.933   4.235   1.491
  340EMI    C01 6442   3.168   3.762   2.739
  340EMI    C04 6443   3.049   3.586   2.816
  340EMI    C03 6444   2.962   3.673   2.765
  340EMI    H07 6445   3.249   3.827   2.714
  340EMI    H09 6446   3.027   3.492   2.862
  340EMI    H08 6447   2.855   3.663   2.760
  340EMI    C05 6448   2.988   3.907   2.650
  340EMI    H0B 6449   3.061   3.945   2.581
  340EMI    H0C 6450   2.899   3.882   2.598
  340EMI    H0D 6451   2.968   3.981   2.725
  340EMI    N00 6452   3.042   3.786   2.716
  340EMI    C06 6453   3.309   3.586   2.840
  340EMI    H0F 6454   3.332   3.616   2.940
  340EMI    C0N 6455   3.298   3.432   2.834
  340EMI    H0O 6456   3.390   3.388   2.865
  340EMI    H0P 6457   3.220   3.400   2.900
  340EMI    H0Q 6458   3.275   3.402   2.734
  340EMI    N02 6459   3.182   3.646   2.798
  340EMI    H0E 6460   3.387   3.618   2.774
  341EMI    C01 6461   0.731   2.922   2.551
  341EMI    C04 6462   0.747   2.738   2.420
  341EMI    C03 6463   0.617   2.762   2.438
  341EMI    H07 6464   0.755   3.007   2.611
  341EMI    H09 6465   0.791   2.658   2.364
  341EMI    H08 6466   0.535   2.706   2.399
  341EMI    C05 6467   0.485   2.946   2.569
  341EMI    H0B 6468   0.502   3.051   2.581
  341EMI    H0C 6469   0.408   2.930   2.496
  341EMI    H0D 6470   0.456   2.903   2.662
  341EMI    N00 6471   0.609   2.882   2.523
  341EMI    C06 6472   0.965   2.857   2.504
  341EMI    H0F 6473   1.000   2.802   2.588
  341EMI    C0N 6474   1.030   2.802   2.376
  341EMI    H0O 6475   1.136   2.812   2.382
  341EMI    H0P 6476   1.005   2.698   2.364
  341EMI    H0Q 6477   0.994   2.857   2.291
  341EMI    N02 6478   0.819   2.843   2.494
  341EMI    H0E 6479   0.990   2.960   2.515
  342EMI    C01 6480   0.873   4.206   4.375
  342EMI    C04 6481   0.794   4.418   4.373
  342EMI    C03 6482   0.909   4.418   4.304
  342EMI    H07 6483   0.884   4.102   4.393
  342EMI    H09 6484   0.730   4.501   4.391
  342EMI    H08 6485   0.955   4.502   4.257
  342EMI    C05 6486   1.082   4.232   4.245
  342EMI    H0B 6487   1.070   4.129   4.216
  342EMI    H0C 6488   1.103   4.291   4.159
  342EMI    H0D 6489   1.162   4.240   4.315
  342EMI    N00 6490   0.958   4.280   4.307
  342EMI    C06 6491   0.659   4.231   4.496
  342EMI    H0F 6492   0.682   4.239   4.600
  342EMI    C0N 6493   0.535   4.316   4.464
  342EMI    H0O 6494   0.452   4.281   4.521
  342EMI    H0P 6495   0.554   4.419   4.488
  342EMI    H0Q 6496   0.512   4.308   4.360
  342EMI    N02 6497   0.773   4.280   4.417
  342EMI    H0E 6498   0.640   4.129   4.472
  343EMI    C01 6499   1.611   1.539   3.983
  343EMI    C04 6500   1.446   1.615   4.117
  343EMI    C03 6501   1.401   1.504   4.058
  343EMI    H07 6502   1.704   1.529   3.931
  343EMI    H09 6503   1.394   1.676   4.187
  343EMI    H08 6504   1.305   1.459   4.071
  343EMI    C05 6505   1.505   1.338   3.886
  343EMI    H0B 6506   1.604   1.297   3.876
  343EMI    H0C 6507   1.441   1.264   3.930
  343EMI    H0D 6508   1.468   1.364   3.789
  343EMI    N00 6509   1.509   1.457   3.971
  343EMI    C06 6510   1.672   1.745   4.105
  343EMI    H0F 6511   1.658   1.827   4.038
  343EMI    C0N 6512   1.641   1.789   4.249
  343EMI    H0O 6513   1.706   1.870   4.276
  343EMI    H0P 6514   1.539   1.823   4.255
  343EMI    H0Q 6515   1.656   1.707   4.315
  343EMI    N02 6516   1.582   1.635   4.067
  343EMI    H0E 6517   1.774   1.712   4.099
  344EMI    C01 6518   4.644   4.738   1.059
  344EMI    C04 6519   4.691   4.850   1.249
  344EMI    C03 6520   4.573   4.896   1.204
  344EMI    H07 6521   4.650   4.671   0.975
  344EMI    H09 6522   4.743   4.882   1.337
  344EMI    H08 6523   4.512   4.972   1.248
  344EMI    C05 6524   4.427   4.838   0.995
  344EMI    H0B 6525   4.404   4.745   0.947
  344EMI    H0C 6526   4.344   4.869   1.056
  344EMI    H0D 6527   4.446   4.913   0.921
  344EMI    N00 6528   4.546   4.822   1.080
  344EMI    C06 6529   4.858   4.670   1.161
  344EMI    H0F 6530   4.936   4.722   1.110
  344EMI    C0N 6531   4.897   4.652   1.309
  344EMI    H0O 6532   4.988   4.595   1.315
  344EMI    H0P 6533   4.912   4.748   1.354
  344EMI    H0Q 6534   4.819   4.600   1.361
  344EMI    N02 6535   4.734   4.748   1.153
  344EMI    H0E 6536   4.843   4.574   1.116
  345EMI    C01 6537   1.982   3.599   1.697
  345EMI    C04 6538   2.074   3.610   1.491
  345EMI    C03 6539   1.941   3.624   1.477
  345EMI    H07 6540   1.969   3.590   1.803
  345EMI    H09 6541   2.147   3.610   1.414
  345EMI    H08 6542   1.888   3.639   1.385
  345EMI    C05 6543   1.742   3.627   1.645
  345EMI    H0B 6544   1.731   3.670   1.743
  345EMI    H0C 6545   1.693   3.690   1.573
  345EMI    H0D 6546   1.697   3.530   1.643
  345EMI    N00 6547   1.885   3.617   1.611
  345EMI    C06 6548   2.228   3.575   1.699
  345EMI    H0F 6549   2.250   3.470   1.705
  345EMI    C0N 6550   2.336   3.646   1.616
  345EMI    H0O 6551   2.432   3.632   1.663
  345EMI    H0P 6552   2.338   3.604   1.517
  345EMI    H0Q 6553   2.314   3.750   1.610
  345EMI    N02 6554   2.097   3.594   1.635
  345EMI    H0E 6555   2.225   3.616   1.798
  346EMI    C01 6556   4.168   1.052   4.401
  346EMI    C04 6557   4.256   0.846   4.427
  346EMI    C03 6558   4.357   0.933   4.435
  346EMI    H07 6559   4.100   1.133   4.385
  346EMI    H09 6560   4.262   0.739   4.436
  346EMI    H08 6561   4.460   0.911   4.451
  346EMI    C05 6562   4.371   1.193   4.419
  346EMI    H0B 6563   4.307   1.271   4.455
  346EMI    H0C 6564   4.456   1.185   4.482
  346EMI    H0D 6565   4.402   1.217   4.319
  346EMI    N00 6566   4.297   1.066   4.418
  346EMI    C06 6567   3.999   0.873   4.390
  346EMI    H0F 6568   3.980   0.853   4.286
  346EMI    C0N 6569   3.986   0.742   4.471
  346EMI    H0O 6570   3.886   0.704   4.460
  346EMI    H0P 6571   4.056   0.670   4.434
  346EMI    H0Q 6572   4.005   0.762   4.574
  346EMI    N02 6573   4.135   0.926   4.405
  346EMI    H0E 6574   3.928   0.944   4.426
  347EMI    C01 6575   2.044   3.664   5.061
  347EMI    C04 6576   1.889   3.756   4.925
  347EMI    C03 6577   1.995   3.837   4.925
  347EMI    H07 6578   2.094   3.598   5.129
  347EMI    H09 6579   1.797   3.770   4.871
  347EMI    H08 6580   2.006   3.929   4.871
  347EMI    C05 6581   2.227   3.829   5.045
  347EMI    H0B 6582   2.294   3.748   5.065
  347EMI    H0C 6583   2.263   3.885   4.961
  347EMI    H0D 6584   2.220   3.893   5.131
  347EMI    N00 6585   2.094   3.775   5.014
  347EMI    C06 6586   1.836   3.530   5.045
  347EMI    H0F 6587   1.777   3.553   5.131
  347EMI    C0N 6588   1.745   3.501   4.925
  347EMI    H0O 6589   1.681   3.418   4.947
  347EMI    H0P 6590   1.684   3.587   4.904
  347EMI    H0Q 6591   1.804   3.478   4.839
  347EMI    N02 6592   1.923   3.645   5.014
  347EMI    H0E 6593   1.897   3.444   5.065
  348EMI    C01 6594   3.582   0.745   2.571
  348EMI    C04 6595   3.660   0.803   2.775
  348EMI    C03 6596   3.691   0.674   2.756
  348EMI    H07 6597   3.536   0.749   2.475
  348EMI    H09 6598   3.682   0.862   2.861
  348EMI    H08 6599   3.743   0.610   2.823
  348EMI    C05 6600   3.651   0.508   2.558
  348EMI    H0B 6601   3.655   0.521   2.452
  348EMI    H0C 6602   3.740   0.459   2.592
  348EMI    H0D 6603   3.565   0.449   2.584
  348EMI    N00 6604   3.640   0.640   2.623
  348EMI    C06 6605   3.536   0.981   2.630
  348EMI    H0F 6606   3.435   0.986   2.665
  348EMI    C0N 6607   3.622   1.085   2.704
  348EMI    H0O 6608   3.583   1.183   2.686
  348EMI    H0P 6609   3.620   1.064   2.809
  348EMI    H0Q 6610   3.723   1.080   2.669
  348EMI    N02 6611   3.590   0.846   2.654
  348EMI    H0E 6612   3.538   1.002   2.525
  349EMI    C01 6613   3.420   3.674   1.142
  349EMI    C04 6614   3.527   3.842   1.037
  349EMI    C03 6615   3.572   3.840   1.163
  349EMI    H07 6616   3.356   3.590   1.163
  349EMI    H09 6617   3.557   3.910   0.960
  349EMI    H08 6618   3.644   3.905   1.208
  349EMI    C05 6619   3.517   3.688   1.369
  349EMI    H0B 6620   3.499   3.583   1.378
  349EMI    H0C 6621   3.617   3.710   1.401
  349EMI    H0D 6622   3.448   3.742   1.430
  349EMI    N00 6623   3.501   3.729   1.229
  349EMI    C06 6624   3.354   3.699   0.905
  349EMI    H0F 6625   3.262   3.753   0.903
  349EMI    C0N 6626   3.437   3.733   0.781
  349EMI    H0O 6627   3.382   3.708   0.693
  349EMI    H0P 6628   3.459   3.838   0.780
  349EMI    H0Q 6629   3.529   3.679   0.783
  349EMI    N02 6630   3.429   3.734   1.026
  349EMI    H0E 6631   3.333   3.594   0.906
  350EMI    C01 6632   4.031   4.019   4.028
  350EMI    C04 6633   3.945   4.143   3.860
  350EMI    C03 6634   4.050   4.209   3.909
  350EMI    H07 6635   4.047   3.941   4.100
  350EMI    H09 6636   3.881   4.173   3.780
  350EMI    H08 6637   4.088   4.303   3.875
  350EMI    C05 6638   4.220   4.160   4.100
  350EMI    H0B 6639   4.268   4.069   4.132
  350EMI    H0C 6640   4.289   4.219   4.043
  350EMI    H0D 6641   4.189   4.215   4.186
  350EMI    N00 6642   4.104   4.127   4.017
  350EMI    C06 6643   3.833   3.915   3.922
  350EMI    H0F 6644   3.748   3.937   3.984
  350EMI    C0N 6645   3.789   3.910   3.775
  350EMI    H0O 6646   3.715   3.833   3.762
  350EMI    H0P 6647   3.748   4.004   3.746
  350EMI    H0Q 6648   3.874   3.888   3.713
  350EMI    N02 6649   3.935   4.020   3.940
  350EMI    H0E 6650   3.874   3.820   3.951
  351EMI    C01 6651   2.302   0.448   1.653
  351EMI    C04 6652   2.159   0.438   1.480
  351EMI    C03 6653   2.151   0.321   1.545
  351EMI    H07 6654   2.376   0.482   1.724
  351EMI    H09 6655   2.105   0.466   1.392
  351EMI    H08 6656   2.088   0.238   1.520
  351EMI    C05 6657   2.270   0.226   1.757
  351EMI    H0B 6658   2.297   0.271   1.850
  351EMI    H0C 6659   2.181   0.168   1.770
  351EMI    H0D 6660   2.349   0.163   1.723
  351EMI    N00 6661   2.245   0.331   1.657
  351EMI    C06 6662   2.300   0.654   1.517
  351EMI    H0F 6663   2.384   0.649   1.450
  351EMI    C0N 6664   2.184   0.728   1.448
  351EMI    H0O 6665   2.214   0.827   1.422
  351EMI    H0P 6666   2.156   0.675   1.359
  351EMI    H0Q 6667   2.100   0.732   1.515
  351EMI    N02 6668   2.258   0.518   1.552
  351EMI    H0E 6669   2.328   0.707   1.606
  352EMI    C01 6670   3.884   0.932   4.716
  352EMI    C04 6671   3.661   0.940   4.751
  352EMI    C03 6672   3.709   0.838   4.823
  352EMI    H07 6673   3.983   0.953   4.681
  352EMI    H09 6674   3.559   0.972   4.744
  352EMI    H08 6675   3.653   0.772   4.886
  352EMI    C05 6676   3.948   0.740   4.857
  352EMI    H0B 6677   4.044   0.786   4.868
  352EMI    H0C 6678   3.913   0.709   4.954
  352EMI    H0D 6679   3.957   0.654   4.794
  352EMI    N00 6680   3.853   0.835   4.799
  352EMI    C06 6681   3.773   1.114   4.592
  352EMI    H0F 6682   3.757   1.080   4.491
  352EMI    C0N 6683   3.657   1.208   4.632
  352EMI    H0O 6684   3.654   1.292   4.566
  352EMI    H0P 6685   3.565   1.155   4.627
  352EMI    H0Q 6686   3.673   1.242   4.732
  352EMI    N02 6687   3.777   0.999   4.683
  352EMI    H0E 6688   3.865   1.167   4.597
  353EMI    C01 6689   4.099   3.801   3.544
  353EMI    C04 6690   4.021   4.006   3.599
  353EMI    C03 6691   4.092   3.962   3.703
  353EMI    H07 6692   4.119   3.711   3.491
  353EMI    H09 6693   3.969   4.100   3.592
  353EMI    H08 6694   4.110   4.013   3.795
  353EMI    C05 6695   4.226   3.742   3.748
  353EMI    H0B 6696   4.288   3.682   3.685
  353EMI    H0C 6697   4.287   3.802   3.812
  353EMI    H0D 6698   4.163   3.678   3.807
  353EMI    N00 6699   4.142   3.829   3.665
  353EMI    C06 6700   3.962   3.904   3.366
  353EMI    H0F 6701   3.863   3.863   3.374
  353EMI    C0N 6702   3.953   4.050   3.318
  353EMI    H0O 6703   3.906   4.053   3.222
  353EMI    H0P 6704   3.895   4.108   3.388
  353EMI    H0Q 6705   4.051   4.092   3.311
  353EMI    N02 6706   4.026   3.900   3.498
  353EMI    H0E 6707   4.019   3.847   3.297
  354EMI    C01 6708   4.550   3.545   4.127
  354EMI    C04 6709   4.457   3.411   4.283
  354EMI    C03 6710   4.511   3.515   4.347
  354EMI    H07 6711   4.582   3.586   4.033
  354EMI    H09 6712   4.406   3.328   4.327
  354EMI    H08 6713   4.510   3.533   4.453
  354EMI    C05 6714   4.640   3.728   4.267
  354EMI    H0B 6715   4.626   3.792   4.182
  354EMI    H0C 6716   4.600   3.775   4.354
  354EMI    H0D 6717   4.744   3.709   4.281
  354EMI    N00 6718   4.569   3.601   4.244
  354EMI    C06 6719   4.444   3.343   4.031
  354EMI    H0F 6720   4.522   3.271   4.014
  354EMI    C0N 6721   4.314   3.269   4.070
  354EMI    H0O 6722   4.285   3.204   3.991
  354EMI    H0P 6723   4.331   3.212   4.159
  354EMI    H0Q 6724   4.237   3.341   4.088
  354EMI    N02 6725   4.484   3.433   4.141
  354EMI    H0E 6726   4.427   3.400   3.943
  355EMI    C01 6727   1.558   4.756   0.173
  355EMI    C04 6728   1.531   4.903   0.343
  355EMI    C03 6729   1.448   4.801   0.365
  355EMI    H07 6730   1.592   4.709   0.083
  355EMI    H09 6731   1.544   4.990   0.403
  355EMI    H08 6732   1.381   4.790   0.448
  355EMI    C05 6733   1.397   4.580   0.236
  355EMI    H0B 6734   1.460   4.511   0.184
  355EMI    H0C 6735   1.372   4.539   0.332
  355EMI    H0D 6736   1.308   4.596   0.180
  355EMI    N00 6737   1.468   4.708   0.254
  355EMI    C06 6738   1.703   4.956   0.153
  355EMI    H0F 6739   1.655   5.023   0.085
  355EMI    C0N 6740   1.779   5.036   0.260
  355EMI    H0O 6741   1.853   5.097   0.213
  355EMI    H0P 6742   1.710   5.098   0.313
  355EMI    H0Q 6743   1.827   4.968   0.328
  355EMI    N02 6744   1.601   4.872   0.217
  355EMI    H0E 6745   1.771   4.894   0.099
  356EMI    C01 6746   0.964   4.497   5.014
  356EMI    C04 6747   1.137   4.352   5.014
  356EMI    C03 6748   1.187   4.473   5.041
  356EMI    H07 6749   0.866   4.538   5.007
  356EMI    H09 6750   1.192   4.260   5.006
  356EMI    H08 6751   1.290   4.498   5.059
  356EMI    C05 6752   1.079   4.709   5.065
  356EMI    H0B 6753   0.987   4.742   5.109
  356EMI    H0C 6754   1.161   4.731   5.131
  356EMI    H0D 6755   1.094   4.761   4.972
  356EMI    N00 6756   1.073   4.565   5.040
  356EMI    C06 6757   0.896   4.264   4.966
  356EMI    H0F 6758   0.886   4.254   4.860
  356EMI    C0N 6759   0.946   4.131   5.025
  356EMI    H0O 6760   0.875   4.053   5.003
  356EMI    H0P 6761   1.041   4.106   4.983
  356EMI    H0Q 6762   0.956   4.140   5.131
  356EMI    N02 6763   0.993   4.370   4.997
  356EMI    H0E 6764   0.801   4.289   5.009
  357EMI    C01 6765   0.778   3.169   0.997
  357EMI    C04 6766   0.565   3.096   0.987
  357EMI    C03 6767   0.638   2.996   1.037
  357EMI    H07 6768   0.866   3.230   0.989
  357EMI    H09 6769   0.459   3.095   0.968
  357EMI    H08 6770   0.604   2.900   1.067
  357EMI    C05 6771   0.892   2.971   1.092
  357EMI    H0B 6772   0.964   3.039   1.133
  357EMI    H0C 6773   0.861   2.902   1.167
  357EMI    H0D 6774   0.937   2.918   1.010
  357EMI    N00 6775   0.776   3.046   1.043
  357EMI    C06 6776   0.622   3.338   0.906
  357EMI    H0F 6777   0.630   3.334   0.799
  357EMI    C0N 6778   0.478   3.373   0.946
  357EMI    H0O 6779   0.452   3.468   0.905
  357EMI    H0P 6780   0.411   3.298   0.907
  357EMI    H0Q 6781   0.470   3.376   1.052
  357EMI    N02 6782   0.658   3.206   0.961
  357EMI    H0E 6783   0.689   3.412   0.944
  358EMI    C01 6784   4.317   0.177   2.459
  358EMI    C04 6785   4.487   0.160   2.606
  358EMI    C03 6786   4.375   0.133   2.673
  358EMI    H07 6787   4.260   0.191   2.370
  358EMI    H09 6788   4.587   0.162   2.646
  358EMI    H08 6789   4.365   0.108   2.777
  358EMI    C05 6790   4.123   0.123   2.603
  358EMI    H0B 6791   4.075   0.086   2.515
  358EMI    H0C 6792   4.113   0.051   2.682
  358EMI    H0D 6793   4.078   0.215   2.632
  358EMI    N00 6794   4.266   0.144   2.575
  358EMI    C06 6795   4.538   0.223   2.358
  358EMI    H0F 6796   4.549   0.330   2.354
  358EMI    C0N 6797   4.675   0.158   2.381
  358EMI    H0O 6798   4.741   0.183   2.301
  358EMI    H0P 6799   4.716   0.193   2.474
  358EMI    H0Q 6800   4.663   0.051   2.385
  358EMI    N02 6801   4.447   0.188   2.468
  358EMI    H0E 6802   4.497   0.188   2.266
  359EMI    C01 6803   3.374   0.171   4.092
  359EMI    C04 6804   3.266   0.087   3.912
  359EMI    C03 6805   3.176   0.097   4.011
  359EMI    H07 6806   3.450   0.210   4.156
  359EMI    H09 6807   3.248   0.051   3.813
  359EMI    H08 6808   3.073   0.071   4.007
  359EMI    C05 6809   3.192   0.180   4.258
  359EMI    H0B 6810   3.244   0.262   4.303
  359EMI    H0C 6811   3.089   0.206   4.247
  359EMI    H0D 6812   3.200   0.094   4.321
  359EMI    N00 6813   3.249   0.152   4.126
  359EMI    C06 6814   3.520   0.143   3.894
  359EMI    H0F 6815   3.574   0.051   3.907
  359EMI    C0N 6816   3.493   0.166   3.745
  359EMI    H0O 6817   3.585   0.171   3.692
  359EMI    H0P 6818   3.434   0.085   3.706
  359EMI    H0Q 6819   3.439   0.258   3.732
  359EMI    N02 6820   3.393   0.135   3.967
  359EMI    H0E 6821   3.579   0.224   3.933
  360EMI    C01 6822   1.371   1.917   1.089
  360EMI    C04 6823   1.428   1.925   0.871
  360EMI    C03 6824   1.295   1.933   0.877
  360EMI    H07 6825   1.376   1.911   1.196
  360EMI    H09 6826   1.489   1.925   0.783
  360EMI    H08 6827   1.227   1.941   0.795
  360EMI    C05 6828   1.125   1.933   1.075
  360EMI    H0B 6829   1.128   1.978   1.172
  360EMI    H0C 6830   1.062   1.991   1.011
  360EMI    H0D 6831   1.086   1.834   1.084
  360EMI    N00 6832   1.261   1.927   1.020
  360EMI    C06 6833   1.615   1.904   1.053
  360EMI    H0F 6834   1.643   1.800   1.058
  360EMI    C0N 6835   1.706   1.976   0.951
  360EMI    H0O 6836   1.808   1.968   0.982
  360EMI    H0P 6837   1.694   1.931   0.854
  360EMI    H0Q 6838   1.678   2.079   0.946
  360EMI    N02 6839   1.475   1.915   1.010
  360EMI    H0E 6840   1.627   1.949   1.149
  361EMI    C01 6841   1.234   3.074   0.715
  361EMI    C04 6842   1.012   3.112   0.705
  361EMI    C03 6843   1.029   2.990   0.759
  361EMI    H07 6844   1.340   3.085   0.706
  361EMI    H09 6845   0.919   3.161   0.687
  361EMI    H08 6846   0.953   2.923   0.791
  361EMI    C05 6847   1.240   2.848   0.814
  361EMI    H0B 6848   1.336   2.874   0.854
  361EMI    H0C 6849   1.180   2.803   0.891
  361EMI    H0D 6850   1.254   2.778   0.734
  361EMI    N00 6851   1.174   2.968   0.763
  361EMI    C06 6852   1.177   3.295   0.619
  361EMI    H0F 6853   1.181   3.286   0.513
  361EMI    C0N 6854   1.067   3.395   0.658
  361EMI    H0O 6855   1.089   3.491   0.615
  361EMI    H0P 6856   0.972   3.361   0.621
  361EMI    H0Q 6857   1.062   3.404   0.765
  361EMI    N02 6858   1.146   3.164   0.678
  361EMI    H0E 6859   1.271   3.329   0.656
  362EMI    C01 6860   3.246   4.403   2.306
  362EMI    C04 6861   3.362   4.214   2.263
  362EMI    C03 6862   3.232   4.185   2.249
  362EMI    H07 6863   3.220   4.504   2.331
  362EMI    H09 6864   3.444   4.147   2.249
  362EMI    H08 6865   3.190   4.090   2.223
  362EMI    C05 6866   3.013   4.325   2.276
  362EMI    H0B 6867   2.989   4.425   2.248
  362EMI    H0C 6868   2.971   4.257   2.204
  362EMI    H0D 6869   2.973   4.304   2.373
  362EMI    N00 6870   3.159   4.309   2.278
  362EMI    C06 6871   3.490   4.433   2.325
  362EMI    H0F 6872   3.516   4.426   2.428
  362EMI    C0N 6873   3.605   4.375   2.240
  362EMI    H0O 6874   3.695   4.431   2.258
  362EMI    H0P 6875   3.621   4.272   2.266
  362EMI    H0Q 6876   3.580   4.381   2.136
  362EMI    N02 6877   3.368   4.356   2.299
  362EMI    H0E 6878   3.474   4.535   2.298
  363EMI    C01 6879   3.065   0.838   1.186
  363EMI    C04 6880   3.270   0.927   1.215
  363EMI    C03 6881   3.184   1.004   1.282
  363EMI    H07 6882   2.984   0.775   1.155
  363EMI    H09 6883   3.376   0.940   1.208
  363EMI    H08 6884   3.207   1.092   1.339
  363EMI    C05 6885   2.925   0.995   1.317
  363EMI    H0B 6886   2.858   0.914   1.333
  363EMI    H0C 6887   2.944   1.045   1.410
  363EMI    H0D 6888   2.882   1.065   1.248
  363EMI    N00 6889   3.052   0.944   1.262
  363EMI    C06 6890   3.242   0.711   1.071
  363EMI    H0F 6891   3.242   0.741   0.968
  363EMI    C0N 6892   3.386   0.678   1.114
  363EMI    H0O 6893   3.424   0.598   1.053
  363EMI    H0P 6894   3.448   0.764   1.102
  363EMI    H0Q 6895   3.387   0.647   1.217
  363EMI    N02 6896   3.190   0.820   1.154
  363EMI    H0E 6897   3.181   0.625   1.083
  364EMI    C01 6898   3.969   3.477   4.166
  364EMI    C04 6899   3.785   3.605   4.192
  364EMI    C03 6900   3.889   3.688   4.177
  364EMI    H07 6901   4.034   3.393   4.157
  364EMI    H09 6902   3.682   3.633   4.206
  364EMI    H08 6903   3.887   3.795   4.177
  364EMI    C05 6904   4.145   3.649   4.141
  364EMI    H0B 6905   4.199   3.578   4.082
  364EMI    H0C 6906   4.143   3.743   4.090
  364EMI    H0D 6907   4.192   3.661   4.236
  364EMI    N00 6908   4.007   3.602   4.160
  364EMI    C06 6909   3.762   3.345   4.196
  364EMI    H0F 6910   3.757   3.315   4.298
  364EMI    C0N 6911   3.619   3.369   4.142
  364EMI    H0O 6912   3.563   3.278   4.151
  364EMI    H0P 6913   3.572   3.446   4.200
  364EMI    H0Q 6914   3.624   3.399   4.040
  364EMI    N02 6915   3.840   3.469   4.184
  364EMI    H0E 6916   3.809   3.268   4.138
  365EMI    C01 6917   2.000   3.342   1.312
  365EMI    C04 6918   1.949   3.148   1.416
  365EMI    C03 6919   1.906   3.138   1.290
  365EMI    H07 6920   2.035   3.440   1.292
  365EMI    H09 6921   1.942   3.074   1.493
  365EMI    H08 6922   1.856   3.054   1.245
  365EMI    C05 6923   1.911   3.300   1.085
  365EMI    H0B 6924   1.985   3.367   1.049
  365EMI    H0C 6925   1.911   3.211   1.025
  365EMI    H0D 6926   1.814   3.346   1.079
  365EMI    N00 6927   1.940   3.265   1.225
  365EMI    C06 6928   2.072   3.337   1.548
  365EMI    H0F 6929   1.997   3.388   1.606
  365EMI    C0N 6930   2.131   3.223   1.633
  365EMI    H0O 6931   2.176   3.263   1.721
  365EMI    H0P 6932   2.054   3.154   1.660
  365EMI    H0Q 6933   2.206   3.171   1.575
  365EMI    N02 6934   2.010   3.281   1.427
  365EMI    H0E 6935   2.149   3.405   1.521
  366EMI    C01 6936   4.413   0.598   2.716
  366EMI    C04 6937   4.432   0.730   2.898
  366EMI    C03 6938   4.421   0.604   2.942
  366EMI    H07 6939   4.406   0.564   2.615
  366EMI    H09 6940   4.442   0.818   2.958
  366EMI    H08 6941   4.421   0.571   3.043
  366EMI    C05 6942   4.395   0.375   2.820
  366EMI    H0B 6943   4.439   0.336   2.730
  366EMI    H0C 6944   4.444   0.333   2.905
  366EMI    H0D 6945   4.291   0.349   2.823
  366EMI    N00 6946   4.409   0.521   2.821
  366EMI    C06 6947   4.434   0.838   2.660
  366EMI    H0F 6948   4.335   0.876   2.642
  366EMI    C0N 6949   4.520   0.949   2.724
  366EMI    H0O 6950   4.525   1.032   2.658
  366EMI    H0P 6951   4.475   0.980   2.817
  366EMI    H0Q 6952   4.618   0.911   2.743
  366EMI    N02 6953   4.426   0.723   2.752
  366EMI    H0E 6954   4.478   0.807   2.568
  367EMI    C01 6955   0.776   2.476   1.216
  367EMI    C04 6956   0.653   2.369   1.372
  367EMI    C03 6957   0.604   2.493   1.361
  367EMI    H07 6958   0.849   2.499   1.141
  367EMI    H09 6959   0.618   2.291   1.436
  367EMI    H08 6960   0.523   2.535   1.416
  367EMI    C05 6961   0.669   2.699   1.215
  367EMI    H0B 6962   0.700   2.707   1.113
  367EMI    H0C 6963   0.566   2.727   1.223
  367EMI    H0D 6964   0.729   2.764   1.276
  367EMI    N00 6965   0.686   2.560   1.260
  367EMI    C06 6966   0.848   2.242   1.252
  367EMI    H0F 6967   0.932   2.245   1.318
  367EMI    C0N 6968   0.766   2.115   1.278
  367EMI    H0O 6969   0.827   2.029   1.261
  367EMI    H0P 6970   0.732   2.115   1.380
  367EMI    H0Q 6971   0.682   2.113   1.212
  367EMI    N02 6972   0.764   2.361   1.276
  367EMI    H0E 6973   0.882   2.243   1.151
  368EMI    C01 6974   2.002   2.452   4.723
  368EMI    C04 6975   2.038   2.636   4.849
  368EMI    C03 6976   2.086   2.662   4.726
  368EMI    H07 6977   1.971   2.355   4.692
  368EMI    H09 6978   2.039   2.702   4.933
  368EMI    H08 6979   2.133   2.752   4.693
  368EMI    C05 6980   2.097   2.522   4.506
  368EMI    H0B 6981   2.027   2.455   4.460
  368EMI    H0C 6982   2.094   2.616   4.456
  368EMI    H0D 6983   2.195   2.481   4.499
  368EMI    N00 6984   2.061   2.541   4.647
  368EMI    C06 6985   1.921   2.429   4.956
  368EMI    H0F 6986   1.995   2.375   5.011
  368EMI    C0N 6987   1.852   2.531   5.049
  368EMI    H0O 6988   1.806   2.479   5.131
  368EMI    H0P 6989   1.925   2.600   5.087
  368EMI    H0Q 6990   1.778   2.585   4.994
  368EMI    N02 6991   1.984   2.500   4.844
  368EMI    H0E 6992   1.848   2.361   4.918
  369EMI    C01 6993   0.549   4.422   2.742
  369EMI    C04 6994   0.402   4.257   2.790
  369EMI    C03 6995   0.525   4.205   2.799
  369EMI    H07 6996   0.591   4.517   2.716
  369EMI    H09 6997   0.310   4.206   2.806
  369EMI    H08 6998   0.551   4.104   2.824
  369EMI    C05 6999   0.764   4.304   2.765
  369EMI    H0B 7000   0.807   4.399   2.791
  369EMI    H0C 7001   0.796   4.230   2.835
  369EMI    H0D 7002   0.797   4.277   2.667
  369EMI    N00 7003   0.618   4.314   2.767
  369EMI    C06 7004   0.313   4.495   2.732
  369EMI    H0F 7005   0.283   4.494   2.629
  369EMI    C0N 7006   0.192   4.459   2.820
  369EMI    H0O 7007   0.114   4.530   2.805
  369EMI    H0P 7008   0.157   4.361   2.794
  369EMI    H0Q 7009   0.222   4.460   2.923
  369EMI    N02 7010   0.421   4.398   2.753
  369EMI    H0E 7011   0.348   4.593   2.757
  370EMI    C01 7012   2.795   2.064   2.370
  370EMI    C04 7013   2.679   1.909   2.254
  370EMI    C03 7014   2.634   2.029   2.216
  370EMI    H07 7015   2.864   2.111   2.437
  370EMI    H09 7016   2.646   1.814   2.219
  370EMI    H08 7017   2.558   2.049   2.144
  370EMI    C05 7018   2.696   2.273   2.284
  370EMI    H0B 7019   2.790   2.320   2.306
  370EMI    H0C 7020   2.665   2.300   2.186
  370EMI    H0D 7021   2.623   2.306   2.355
  370EMI    N00 7022   2.711   2.127   2.293
  370EMI    C06 7023   2.862   1.832   2.424
  370EMI    H0F 7024   2.811   1.804   2.515
  370EMI    C0N 7025   2.877   1.708   2.334
  370EMI    H0O 7026   2.934   1.633   2.385
  370EMI    H0P 7027   2.780   1.669   2.310
  370EMI    H0Q 7028   2.927   1.736   2.244
  370EMI    N02 7029   2.783   1.935   2.354
  370EMI    H0E 7030   2.958   1.871   2.448
  371EMI    C01 7031   0.646   0.764   4.827
  371EMI    C04 7032   0.557   0.769   5.035
  371EMI    C03 7033   0.561   0.641   4.996
  371EMI    H07 7034   0.689   0.794   4.734
  371EMI    H09 7035   0.521   0.807   5.128
  371EMI    H08 7036   0.528   0.556   5.052
  371EMI    C05 7037   0.641   0.522   4.778
  371EMI    H0B 7038   0.726   0.539   4.714
  371EMI    H0C 7039   0.660   0.438   4.841
  371EMI    H0D 7040   0.555   0.503   4.718
  371EMI    N00 7041   0.618   0.641   4.861
  371EMI    C06 7042   0.630   0.993   4.921
  371EMI    H0F 7043   0.542   1.038   4.881
  371EMI    C0N 7044   0.653   1.044   5.064
  371EMI    H0O 7045   0.665   1.151   5.062
  371EMI    H0P 7046   0.569   1.019   5.125
  371EMI    H0Q 7047   0.742   0.999   5.104
  371EMI    N02 7048   0.613   0.847   4.924
  371EMI    H0E 7049   0.714   1.018   4.860
  372EMI    C01 7050   3.535   4.963   0.627
  372EMI    C04 7051   3.352   4.902   0.509
  372EMI    C03 7052   3.310   4.941   0.630
  372EMI    H07 7053   3.636   4.984   0.655
  372EMI    H09 7054   3.292   4.867   0.428
  372EMI    H08 7055   3.209   4.943   0.665
  372EMI    C05 7056   3.433   5.030   0.842
  372EMI    H0B 7057   3.516   5.097   0.854
  372EMI    H0C 7058   3.342   5.082   0.863
  372EMI    H0D 7059   3.444   4.948   0.910
  372EMI    N00 7060   3.430   4.980   0.704
  372EMI    C06 7061   3.588   4.887   0.398
  372EMI    H0F 7062   3.620   4.785   0.405
  372EMI    C0N 7063   3.514   4.909   0.265
  372EMI    H0O 7064   3.580   4.887   0.183
  372EMI    H0P 7065   3.429   4.845   0.261
  372EMI    H0Q 7066   3.482   5.011   0.258
  372EMI    N02 7067   3.498   4.918   0.510
  372EMI    H0E 7068   3.674   4.951   0.402
  373EMI    C01 7069   2.730   4.630   2.001
  373EMI    C04 7070   2.573   4.725   2.132
  373EMI    C03 7071   2.628   4.823   2.060
  373EMI    H07 7072   2.794   4.558   1.953
  373EMI    H09 7073   2.495   4.735   2.205
  373EMI    H08 7074   2.604   4.927   2.062
  373EMI    C05 7075   2.816   4.827   1.879
  373EMI    H0B 7076   2.840   4.760   1.799
  373EMI    H0C 7077   2.766   4.912   1.840
  373EMI    H0D 7078   2.907   4.858   1.927
  373EMI    N00 7079   2.729   4.758   1.975
  373EMI    C06 7080   2.613   4.467   2.145
  373EMI    H0F 7081   2.675   4.449   2.230
  373EMI    C0N 7082   2.465   4.458   2.187
  373EMI    H0O 7083   2.444   4.360   2.225
  373EMI    H0P 7084   2.444   4.531   2.262
  373EMI    H0Q 7085   2.402   4.476   2.102
  373EMI    N02 7086   2.640   4.601   2.092
  373EMI    H0E 7087   2.633   4.394   2.070
  374EMI    C01 7088   0.807   3.073   4.715
  374EMI    C04 7089   0.587   3.087   4.762
  374EMI    C03 7090   0.598   3.027   4.643
  374EMI    H07 7091   0.914   3.080   4.721
  374EMI    H09 7092   0.497   3.111   4.814
  374EMI    H08 7093   0.519   2.992   4.581
  374EMI    C05 7094   0.803   2.959   4.495
  374EMI    H0B 7095   0.899   2.919   4.520
  374EMI    H0C 7096   0.740   2.881   4.458
  374EMI    H0D 7097   0.814   3.035   4.420
  374EMI    N00 7098   0.742   3.019   4.615
  374EMI    C06 7099   0.761   3.182   4.931
  374EMI    H0F 7100   0.766   3.288   4.916
  374EMI    C0N 7101   0.655   3.151   5.039
  374EMI    H0O 7102   0.683   3.200   5.131
  374EMI    H0P 7103   0.560   3.188   5.007
  374EMI    H0Q 7104   0.650   3.046   5.055
  374EMI    N02 7105   0.724   3.116   4.806
  374EMI    H0E 7106   0.857   3.146   4.964
  375EMI    C01 7107   0.980   1.688   0.921
  375EMI    C04 7108   1.077   1.601   1.105
  375EMI    C03 7109   1.168   1.598   1.008
  375EMI    H07 7110   0.910   1.732   0.853
  375EMI    H09 7111   1.089   1.567   1.206
  375EMI    H08 7112   1.268   1.562   1.015
  375EMI    C05 7113   1.166   1.673   0.757
  375EMI    H0B 7114   1.122   1.757   0.708
  375EMI    H0C 7115   1.271   1.688   0.770
  375EMI    H0D 7116   1.149   1.585   0.698
  375EMI    N00 7117   1.103   1.656   0.889
  375EMI    C06 7118   0.829   1.683   1.116
  375EMI    H0F 7119   0.767   1.597   1.106
  375EMI    C0N 7120   0.856   1.710   1.265
  375EMI    H0O 7121   0.764   1.726   1.316
  375EMI    H0P 7122   0.906   1.625   1.308
  375EMI    H0Q 7123   0.919   1.796   1.275
  375EMI    N02 7124   0.956   1.660   1.046
  375EMI    H0E 7125   0.780   1.768   1.073
  376EMI    C01 7126   4.103   3.875   1.242
  376EMI    C04 7127   4.218   4.067   1.214
  376EMI    C03 7128   4.107   4.077   1.139
  376EMI    H07 7129   4.073   3.778   1.274
  376EMI    H09 7130   4.295   4.141   1.224
  376EMI    H08 7131   4.078   4.159   1.078
  376EMI    C05 7132   3.907   3.915   1.097
  376EMI    H0B 7133   3.852   3.850   1.162
  376EMI    H0C 7134   3.850   4.004   1.080
  376EMI    H0D 7135   3.925   3.866   1.004
  376EMI    N00 7136   4.035   3.951   1.159
  376EMI    C06 7137   4.313   3.882   1.371
  376EMI    H0F 7138   4.387   3.828   1.315
  376EMI    C0N 7139   4.381   3.997   1.447
  376EMI    H0O 7140   4.454   3.958   1.514
  376EMI    H0P 7141   4.428   4.063   1.377
  376EMI    H0Q 7142   4.307   4.051   1.503
  376EMI    N02 7143   4.212   3.936   1.279
  376EMI    H0E 7144   4.266   3.816   1.441
  377EMI    C01 7145   2.678   4.667   0.415
  377EMI    C04 7146   2.607   4.699   0.203
  377EMI    C03 7147   2.626   4.820   0.256
  377EMI    H07 7148   2.709   4.622   0.506
  377EMI    H09 7149   2.574   4.677   0.103
  377EMI    H08 7150   2.610   4.914   0.209
  377EMI    C05 7151   2.705   4.900   0.492
  377EMI    H0B 7152   2.780   4.864   0.558
  377EMI    H0C 7153   2.742   4.987   0.441
  377EMI    H0D 7154   2.618   4.926   0.548
  377EMI    N00 7155   2.672   4.796   0.394
  377EMI    C06 7156   2.636   4.456   0.294
  377EMI    H0F 7157   2.539   4.421   0.322
  377EMI    C0N 7158   2.663   4.417   0.147
  377EMI    H0O 7159   2.660   4.310   0.137
  377EMI    H0P 7160   2.589   4.461   0.084
  377EMI    H0Q 7161   2.760   4.452   0.118
  377EMI    N02 7162   2.642   4.602   0.307
  377EMI    H0E 7163   2.710   4.411   0.357
  378EMI    C01 7164   1.131   1.311   1.831
  378EMI    C04 7165   1.094   1.376   1.618
  378EMI    C03 7166   1.026   1.459   1.698
  378EMI    H07 7167   1.167   1.258   1.917
  378EMI    H09 7168   1.098   1.378   1.511
  378EMI    H08 7169   0.965   1.542   1.667
  378EMI    C05 7170   0.998   1.477   1.957
  378EMI    H0B 7171   1.067   1.463   2.037
  378EMI    H0C 7172   0.983   1.581   1.940
  378EMI    H0D 7173   0.905   1.431   1.982
  378EMI    N00 7174   1.052   1.415   1.835
  378EMI    C06 7175   1.247   1.169   1.665
  378EMI    H0F 7176   1.188   1.082   1.650
  378EMI    C0N 7177   1.317   1.207   1.533
  378EMI    H0O 7178   1.380   1.126   1.502
  378EMI    H0P 7179   1.244   1.226   1.457
  378EMI    H0Q 7180   1.377   1.295   1.547
  378EMI    N02 7181   1.161   1.280   1.707
  378EMI    H0E 7182   1.321   1.150   1.740
  379EMI    C01 7183   2.136   3.899   4.688
  379EMI    C04 7184   2.259   3.713   4.728
  379EMI    C03 7185   2.333   3.818   4.764
  379EMI    H07 7186   2.057   3.965   4.660
  379EMI    H09 7187   2.286   3.610   4.733
  379EMI    H08 7188   2.432   3.815   4.804
  379EMI    C05 7189   2.292   4.076   4.762
  379EMI    H0B 7190   2.206   4.135   4.785
  379EMI    H0C 7191   2.360   4.079   4.845
  379EMI    H0D 7192   2.340   4.115   4.675
  379EMI    N00 7193   2.251   3.937   4.738
  379EMI    C06 7194   2.018   3.690   4.628
  379EMI    H0F 7195   2.029   3.676   4.523
  379EMI    C0N 7196   2.015   3.553   4.698
  379EMI    H0O 7197   1.933   3.496   4.661
  379EMI    H0P 7198   2.106   3.500   4.677
  379EMI    H0Q 7199   2.005   3.566   4.804
  379EMI    N02 7200   2.132   3.768   4.679
  379EMI    H0E 7201   1.927   3.742   4.649
  380EMI    C01 7202   2.646   1.149   4.247
  380EMI    C04 7203   2.820   1.061   4.360
  380EMI    C03 7204   2.869   1.158   4.282
  380EMI    H07 7205   2.547   1.169   4.211
  380EMI    H09 7206   2.875   0.998   4.426
  380EMI    H08 7207   2.971   1.189   4.273
  380EMI    C05 7208   2.758   1.323   4.113
  380EMI    H0B 7209   2.666   1.377   4.115
  380EMI    H0C 7210   2.839   1.389   4.137
  380EMI    H0D 7211   2.773   1.283   4.014
  380EMI    N00 7212   2.753   1.214   4.210
  380EMI    C06 7213   2.580   0.966   4.399
  380EMI    H0F 7214   2.571   0.877   4.340
  380EMI    C0N 7215   2.630   0.929   4.540
  380EMI    H0O 7216   2.561   0.863   4.587
  380EMI    H0P 7217   2.726   0.882   4.532
  380EMI    H0Q 7218   2.639   1.018   4.599
  380EMI    N02 7219   2.676   1.057   4.335
  380EMI    H0E 7220   2.485   1.013   4.407
  381EMI    C01 7221   2.078   4.230   2.550
  381EMI    C04 7222   2.080   4.219   2.324
  381EMI    C03 7223   2.121   4.101   2.370
  381EMI    H07 7224   2.066   4.265   2.650
  381EMI    H09 7225   2.069   4.249   2.222
  381EMI    H08 7226   2.151   4.016   2.311
  381EMI    C05 7227   2.157   4.004   2.609
  381EMI    H0B 7228   2.101   4.014   2.700
  381EMI    H0C 7229   2.137   3.908   2.565
  381EMI    H0D 7230   2.262   4.011   2.631
  381EMI    N00 7231   2.119   4.110   2.516
  381EMI    C06 7232   2.004   4.440   2.442
  381EMI    H0F 7233   2.087   4.506   2.441
  381EMI    C0N 7234   1.918   4.463   2.316
  381EMI    H0O 7235   1.882   4.564   2.315
  381EMI    H0P 7236   1.977   4.445   2.229
  381EMI    H0Q 7237   1.834   4.396   2.317
  381EMI    N02 7238   2.052   4.301   2.443
  381EMI    H0E 7239   1.945   4.457   2.529
  382EMI    C01 7240   4.812   2.291   1.921
  382EMI    C04 7241   4.786   2.151   1.746
  382EMI    C03 7242   4.902   2.216   1.728
  382EMI    H07 7243   4.797   2.345   2.012
  382EMI    H09 7244   4.743   2.077   1.682
  382EMI    H08 7245   4.970   2.205   1.646
  382EMI    C05 7246   5.028   2.399   1.865
  382EMI    H0B 7247   5.042   2.412   1.971
  382EMI    H0C 7248   5.117   2.358   1.822
  382EMI    H0D 7249   5.006   2.493   1.820
  382EMI    N00 7250   4.916   2.306   1.842
  382EMI    C06 7251   4.604   2.159   1.933
  382EMI    H0F 7252   4.525   2.220   1.897
  382EMI    C0N 7253   4.577   2.012   1.896
  382EMI    H0O 7254   4.484   1.980   1.940
  382EMI    H0P 7255   4.570   2.003   1.789
  382EMI    H0Q 7256   4.656   1.950   1.931
  382EMI    N02 7257   4.731   2.202   1.872
  382EMI    H0E 7258   4.611   2.167   2.040
  383EMI    C01 7259   4.428   2.067   2.766
  383EMI    C04 7260   4.369   2.091   2.982
  383EMI    C03 7261   4.393   2.213   2.934
  383EMI    H07 7262   4.452   2.025   2.670
  383EMI    H09 7263   4.339   2.065   3.082
  383EMI    H08 7264   4.386   2.306   2.988
  383EMI    C05 7265   4.467   2.302   2.700
  383EMI    H0B 7266   4.440   2.274   2.601
  383EMI    H0C 7267   4.415   2.392   2.727
  383EMI    H0D 7268   4.572   2.320   2.705
  383EMI    N00 7269   4.431   2.195   2.794
  383EMI    C06 7270   4.379   1.852   2.877
  383EMI    H0F 7271   4.472   1.808   2.905
  383EMI    C0N 7272   4.271   1.815   2.980
  383EMI    H0O 7273   4.260   1.708   2.984
  383EMI    H0P 7274   4.299   1.852   3.076
  383EMI    H0Q 7275   4.177   1.859   2.951
  383EMI    N02 7276   4.393   1.998   2.871
  383EMI    H0E 7277   4.350   1.815   2.780
  384EMI    C01 7278   4.808   1.560   1.025
  384EMI    C04 7279   4.957   1.714   0.953
  384EMI    C03 7280   4.858   1.708   0.862
  384EMI    H07 7281   4.758   1.486   1.083
  384EMI    H09 7282   5.044   1.776   0.950
  384EMI    H08 7283   4.851   1.765   0.772
  384EMI    C05 7284   4.639   1.568   0.845
  384EMI    H0B 7285   4.567   1.538   0.918
  384EMI    H0C 7286   4.600   1.651   0.789
  384EMI    H0D 7287   4.659   1.486   0.779
  384EMI    N00 7288   4.763   1.608   0.912
  384EMI    C06 7289   5.000   1.588   1.178
  384EMI    H0F 7290   5.069   1.509   1.157
  384EMI    C0N 7291   5.077   1.715   1.220
  384EMI    H0O 7292   5.135   1.694   1.308
  384EMI    H0P 7293   5.143   1.744   1.140
  384EMI    H0Q 7294   5.008   1.794   1.240
  384EMI    N02 7295   4.921   1.617   1.057
  384EMI    H0E 7296   4.934   1.559   1.257
  385EMI    C01 7297   2.975   2.919   2.847
  385EMI    C04 7298   3.114   2.749   2.795
  385EMI    C03 7299   3.006   2.695   2.852
  385EMI    H07 7300   2.933   3.016   2.859
  385EMI    H09 7301   3.200   2.697   2.757
  385EMI    H08 7302   2.987   2.591   2.869
  385EMI    C05 7303   2.786   2.796   2.949
  385EMI    H0B 7304   2.723   2.876   2.916
  385EMI    H0C 7305   2.741   2.703   2.923
  385EMI    H0D 7306   2.798   2.801   3.055
  385EMI    N00 7307   2.917   2.807   2.885
  385EMI    C06 7308   3.184   2.994   2.740
  385EMI    H0F 7309   3.250   3.027   2.817
  385EMI    C0N 7310   3.266   2.933   2.625
  385EMI    H0O 7311   3.333   3.006   2.586
  385EMI    H0P 7312   3.321   2.849   2.661
  385EMI    H0Q 7313   3.199   2.901   2.547
  385EMI    N02 7314   3.091   2.894   2.793
  385EMI    H0E 7315   3.128   3.078   2.703
  386EMI    C01 7316   3.969   1.032   3.585
  386EMI    C04 7317   3.758   1.110   3.571
  386EMI    C03 7318   3.775   1.023   3.471
  386EMI    H07 7319   4.070   1.015   3.617
  386EMI    H09 7320   3.669   1.165   3.594
  386EMI    H08 7321   3.702   0.994   3.397
  386EMI    C05 7322   3.976   0.876   3.393
  386EMI    H0B 7323   4.050   0.821   3.448
  386EMI    H0C 7324   3.902   0.809   3.355
  386EMI    H0D 7325   4.023   0.928   3.312
  386EMI    N00 7326   3.912   0.974   3.482
  386EMI    C06 7327   3.914   1.196   3.762
  386EMI    H0F 7328   3.953   1.291   3.731
  386EMI    C0N 7329   3.785   1.217   3.843
  386EMI    H0O 7330   3.806   1.276   3.929
  386EMI    H0P 7331   3.712   1.266   3.782
  386EMI    H0Q 7332   3.746   1.122   3.874
  386EMI    N02 7333   3.885   1.114   3.643
  386EMI    H0E 7334   3.987   1.146   3.823
  387EMI    C01 7335   1.039   0.333   2.007
  387EMI    C04 7336   1.009   0.135   1.903
  387EMI    C03 7337   1.130   0.132   1.959
  387EMI    H07 7338   1.024   0.432   2.045
  387EMI    H09 7339   0.962   0.057   1.846
  387EMI    H08 7340   1.200   0.051   1.956
  387EMI    C05 7341   1.266   0.304   2.101
  387EMI    H0B 7342   1.237   0.372   2.178
  387EMI    H0C 7343   1.313   0.218   2.145
  387EMI    H0D 7344   1.335   0.352   2.035
  387EMI    N00 7345   1.147   0.261   2.026
  387EMI    C06 7346   0.820   0.315   1.895
  387EMI    H0F 7347   0.827   0.365   1.801
  387EMI    C0N 7348   0.723   0.196   1.882
  387EMI    H0O 7349   0.626   0.231   1.853
  387EMI    H0P 7350   0.760   0.128   1.809
  387EMI    H0Q 7351   0.715   0.146   1.977
  387EMI    N02 7352   0.952   0.266   1.936
  387EMI    H0E 7353   0.783   0.383   1.969
  388EMI    C01 7354   0.522   3.868   1.085
  388EMI    C04 7355   0.733   3.950   1.077
  388EMI    C03 7356   0.653   4.051   1.113
  388EMI    H07 7357   0.438   3.803   1.080
  388EMI    H09 7358   0.839   3.954   1.063
  388EMI    H08 7359   0.682   4.151   1.135
  388EMI    C05 7360   0.395   4.069   1.154
  388EMI    H0B 7361   0.325   4.002   1.199
  388EMI    H0C 7362   0.420   4.147   1.223
  388EMI    H0D 7363   0.352   4.112   1.066
  388EMI    N00 7364   0.517   3.995   1.118
  388EMI    C06 7365   0.689   3.699   1.018
  388EMI    H0F 7366   0.686   3.691   0.912
  388EMI    C0N 7367   0.833   3.675   1.068
  388EMI    H0O 7368   0.865   3.577   1.038
  388EMI    H0P 7369   0.898   3.748   1.025
  388EMI    H0Q 7370   0.836   3.683   1.174
  388EMI    N02 7371   0.645   3.833   1.059
  388EMI    H0E 7372   0.624   3.626   1.061
  389EMI    C01 7373   2.914   2.965   4.158
  389EMI    C04 7374   2.953   2.998   3.938
  389EMI    C03 7375   2.964   2.867   3.961
  389EMI    H07 7376   2.892   2.981   4.261
  389EMI    H09 7377   2.965   3.048   3.845
  389EMI    H08 7378   2.987   2.791   3.889
  389EMI    C05 7379   2.939   2.719   4.175
  389EMI    H0B 7380   2.871   2.724   4.257
  389EMI    H0C 7381   2.910   2.641   4.108
  389EMI    H0D 7382   3.038   2.700   4.212
  389EMI    N00 7383   2.938   2.848   4.104
  389EMI    C06 7384   2.899   3.202   4.092
  389EMI    H0F 7385   2.992   3.249   4.117
  389EMI    C0N 7386   2.842   3.268   3.965
  389EMI    H0O 7387   2.827   3.372   3.982
  389EMI    H0P 7388   2.911   3.255   3.884
  389EMI    H0Q 7389   2.749   3.221   3.940
  389EMI    N02 7390   2.921   3.059   4.068
  389EMI    H0E 7391   2.830   3.215   4.172
  390EMI    C01 7392   3.340   0.236   2.456
  390EMI    C04 7393   3.361   0.422   2.330
  390EMI    C03 7394   3.481   0.364   2.336
  390EMI    H07 7395   3.299   0.158   2.517
  390EMI    H09 7396   3.335   0.512   2.279
  390EMI    H08 7397   3.571   0.398   2.290
  390EMI    C05 7398   3.571   0.148   2.452
  390EMI    H0B 7399   3.528   0.051   2.465
  390EMI    H0C 7400   3.643   0.145   2.373
  390EMI    H0D 7401   3.618   0.178   2.543
  390EMI    N00 7402   3.464   0.244   2.418
  390EMI    C06 7403   3.128   0.361   2.432
  390EMI    H0F 7404   3.115   0.420   2.520
  390EMI    C0N 7405   3.069   0.435   2.310
  390EMI    H0O 7406   2.964   0.453   2.327
  390EMI    H0P 7407   3.119   0.529   2.298
  390EMI    H0Q 7408   3.081   0.376   2.222
  390EMI    N02 7409   3.271   0.337   2.409
  390EMI    H0E 7410   3.077   0.267   2.444
  391EMI    C01 7411   2.193   4.749   0.919
  391EMI    C04 7412   2.195   4.949   0.816
  391EMI    C03 7413   2.286   4.873   0.756
  391EMI    H07 7414   2.169   4.668   0.986
  391EMI    H09 7415   2.170   5.051   0.793
  391EMI    H08 7416   2.349   4.900   0.674
  391EMI    C05 7417   2.366   4.627   0.792
  391EMI    H0B 7418   2.313   4.537   0.816
  391EMI    H0C 7419   2.389   4.628   0.688
  391EMI    H0D 7420   2.457   4.631   0.849
  391EMI    N00 7421   2.282   4.743   0.824
  391EMI    C06 7422   2.031   4.909   1.015
  391EMI    H0F 7423   2.075   4.951   1.103
  391EMI    C0N 7424   1.941   5.013   0.947
  391EMI    H0O 7425   1.864   5.044   1.015
  391EMI    H0P 7426   2.000   5.098   0.919
  391EMI    H0Q 7427   1.896   4.971   0.860
  391EMI    N02 7428   2.136   4.866   0.922
  391EMI    H0E 7429   1.972   4.824   1.043
  392EMI    C01 7430   4.373   2.686   0.836
  392EMI    C04 7431   4.562   2.638   0.949
  392EMI    C03 7432   4.513   2.751   1.000
  392EMI    H07 7433   4.291   2.681   0.767
  392EMI    H09 7434   4.652   2.587   0.980
  392EMI    H08 7435   4.555   2.810   1.080
  392EMI    C05 7436   4.302   2.895   0.947
  392EMI    H0B 7437   4.201   2.868   0.921
  392EMI    H0C 7438   4.306   2.925   1.049
  392EMI    H0D 7439   4.334   2.976   0.885
  392EMI    N00 7440   4.390   2.780   0.925
  392EMI    C06 7441   4.483   2.478   0.758
  392EMI    H0F 7442   4.540   2.503   0.671
  392EMI    C0N 7443   4.556   2.368   0.837
  392EMI    H0O 7444   4.565   2.281   0.776
  392EMI    H0P 7445   4.653   2.402   0.866
  392EMI    H0Q 7446   4.499   2.343   0.925
  392EMI    N02 7447   4.470   2.598   0.843
  392EMI    H0E 7448   4.386   2.444   0.730
  393EMI    C01 7449   4.293   1.686   3.428
  393EMI    C04 7450   4.303   1.486   3.531
  393EMI    C03 7451   4.418   1.501   3.465
  393EMI    H07 7452   4.260   1.782   3.393
  393EMI    H09 7453   4.274   1.402   3.591
  393EMI    H08 7454   4.499   1.432   3.460
  393EMI    C05 7455   4.513   1.692   3.314
  393EMI    H0B 7456   4.508   1.798   3.322
  393EMI    H0C 7457   4.609   1.658   3.346
  393EMI    H0D 7458   4.497   1.663   3.212
  393EMI    N00 7459   4.409   1.632   3.399
  393EMI    C06 7460   4.090   1.635   3.558
  393EMI    H0F 7461   4.016   1.598   3.490
  393EMI    C0N 7462   4.073   1.565   3.695
  393EMI    H0O 7463   3.975   1.585   3.733
  393EMI    H0P 7464   4.085   1.459   3.683
  393EMI    H0Q 7465   4.147   1.602   3.763
  393EMI    N02 7466   4.224   1.607   3.506
  393EMI    H0E 7467   4.077   1.740   3.571
  394EMI    C01 7468   1.510   3.915   0.346
  394EMI    C04 7469   1.547   3.945   0.567
  394EMI    C03 7470   1.660   3.978   0.503
  394EMI    H07 7471   1.464   3.891   0.252
  394EMI    H09 7472   1.530   3.948   0.672
  394EMI    H08 7473   1.751   4.012   0.547
  394EMI    C05 7474   1.729   3.979   0.251
  394EMI    H0B 7475   1.676   4.008   0.162
  394EMI    H0C 7476   1.797   4.057   0.279
  394EMI    H0D 7477   1.784   3.889   0.233
  394EMI    N00 7478   1.633   3.957   0.360
  394EMI    C06 7479   1.314   3.861   0.486
  394EMI    H0F 7480   1.312   3.755   0.499
  394EMI    C0N 7481   1.258   3.930   0.612
  394EMI    H0O 7482   1.157   3.898   0.628
  394EMI    H0P 7483   1.318   3.903   0.696
  394EMI    H0Q 7484   1.260   4.036   0.598
  394EMI    N02 7485   1.452   3.905   0.463
  394EMI    H0E 7486   1.253   3.887   0.401
  395EMI    C01 7487   1.945   3.359   2.104
  395EMI    C04 7488   1.965   3.536   2.243
  395EMI    C03 7489   2.086   3.512   2.193
  395EMI    H07 7490   1.906   3.277   2.048
  395EMI    H09 7491   1.938   3.613   2.312
  395EMI    H08 7492   2.176   3.566   2.213
  395EMI    C05 7493   2.178   3.334   2.025
  395EMI    H0B 7494   2.137   3.292   1.935
  395EMI    H0C 7495   2.251   3.408   2.000
  395EMI    H0D 7496   2.224   3.256   2.083
  395EMI    N00 7497   2.070   3.397   2.103
  395EMI    C06 7498   1.732   3.423   2.211
  395EMI    H0F 7499   1.716   3.358   2.294
  395EMI    C0N 7500   1.673   3.562   2.243
  395EMI    H0O 7501   1.568   3.553   2.262
  395EMI    H0P 7502   1.722   3.602   2.329
  395EMI    H0Q 7503   1.688   3.627   2.160
  395EMI    N02 7504   1.876   3.436   2.184
  395EMI    H0E 7505   1.683   3.383   2.124
  396EMI    C01 7506   4.296   2.475   1.768
  396EMI    C04 7507   4.471   2.341   1.718
  396EMI    C03 7508   4.360   2.268   1.704
  396EMI    H07 7509   4.237   2.560   1.796
  396EMI    H09 7510   4.572   2.308   1.701
  396EMI    H08 7511   4.353   2.165   1.676
  396EMI    C05 7512   4.106   2.320   1.737
  396EMI    H0B 7513   4.047   2.406   1.713
  396EMI    H0C 7514   4.089   2.244   1.664
  396EMI    H0D 7515   4.078   2.284   1.833
  396EMI    N00 7516   4.248   2.357   1.737
  396EMI    C06 7517   4.515   2.589   1.785
  396EMI    H0F 7518   4.543   2.590   1.888
  396EMI    C0N 7519   4.641   2.578   1.698
  396EMI    H0O 7520   4.705   2.662   1.717
  396EMI    H0P 7521   4.693   2.487   1.721
  396EMI    H0Q 7522   4.613   2.578   1.594
  396EMI    N02 7523   4.427   2.475   1.759
  396EMI    H0E 7524   4.463   2.680   1.762
  397EMI    C01 7525   0.902   0.528   4.330
  397EMI    C04 7526   1.119   0.490   4.381
  397EMI    C03 7527   1.076   0.587   4.462
  397EMI    H07 7528   0.805   0.523   4.285
  397EMI    H09 7529   1.217   0.447   4.378
  397EMI    H08 7530   1.132   0.639   4.537
  397EMI    C05 7531   0.846   0.708   4.490
  397EMI    H0B 7532   0.745   0.672   4.486
  397EMI    H0C 7533   0.875   0.723   4.591
  397EMI    H0D 7534   0.852   0.801   4.437
  397EMI    N00 7535   0.935   0.610   4.427
  397EMI    C06 7536   1.004   0.350   4.192
  397EMI    H0F 7537   1.033   0.394   4.099
  397EMI    C0N 7538   1.105   0.240   4.230
  397EMI    H0O 7539   1.105   0.164   4.154
  397EMI    H0P 7540   1.203   0.282   4.238
  397EMI    H0Q 7541   1.077   0.196   4.323
  397EMI    N02 7542   1.004   0.454   4.297
  397EMI    H0E 7543   0.906   0.308   4.184
  398EMI    C01 7544   3.116   4.985   1.673
  398EMI    C04 7545   2.969   5.064   1.824
  398EMI    C03 7546   2.905   5.057   1.707
  398EMI    H07 7547   3.205   4.947   1.627
  398EMI    H09 7548   2.928   5.098   1.917
  398EMI    H08 7549   2.803   5.083   1.687
  398EMI    C05 7550   2.978   4.980   1.468
  398EMI    H0B 7551   3.040   4.899   1.435
  398EMI    H0C 7552   2.875   4.954   1.454
  398EMI    H0D 7553   3.001   5.068   1.412
  398EMI    N00 7554   3.003   5.005   1.611
  398EMI    C06 7555   3.212   5.008   1.900
  398EMI    H0F 7556   3.267   5.100   1.902
  398EMI    C0N 7557   3.150   4.981   2.038
  398EMI    H0O 7558   3.228   4.974   2.111
  398EMI    H0P 7559   3.084   5.061   2.064
  398EMI    H0Q 7560   3.096   4.889   2.035
  398EMI    N02 7561   3.105   5.017   1.799
  398EMI    H0E 7562   3.278   4.928   1.874
  399EMI    C01 7563   0.452   1.711   0.614
  399EMI    C04 7564   0.486   1.622   0.409
  399EMI    C03 7565   0.361   1.590   0.446
  399EMI    H07 7566   0.466   1.763   0.706
  399EMI    H09 7567   0.534   1.596   0.317
  399EMI    H08 7568   0.290   1.532   0.390
  399EMI    C05 7569   0.220   1.638   0.660
  399EMI    H0B 7570   0.211   1.725   0.721
  399EMI    H0C 7571   0.135   1.631   0.595
  399EMI    H0D 7572   0.225   1.551   0.722
  399EMI    N00 7573   0.342   1.648   0.579
  399EMI    C06 7574   0.677   1.758   0.523
  399EMI    H0F 7575   0.745   1.688   0.567
  399EMI    C0N 7576   0.723   1.792   0.380
  399EMI    H0O 7577   0.821   1.834   0.383
  399EMI    H0P 7578   0.724   1.703   0.321
  399EMI    H0Q 7579   0.655   1.863   0.337
  399EMI    N02 7580   0.542   1.701   0.519
  399EMI    H0E 7581   0.676   1.847   0.583
  400EMI    C01 7582   1.826   1.792   4.849
  400EMI    C04 7583   1.867   2.011   4.883
  400EMI    C03 7584   1.779   1.973   4.976
  400EMI    H07 7585   1.828   1.693   4.809
  400EMI    H09 7586   1.908   2.109   4.869
  400EMI    H08 7587   1.736   2.033   5.053
  400EMI    C05 7588   1.665   1.744   5.030
  400EMI    H0B 7589   1.701   1.644   5.028
  400EMI    H0C 7590   1.661   1.779   5.131
  400EMI    H0D 7591   1.567   1.747   4.987
  400EMI    N00 7592   1.755   1.830   4.951
  400EMI    C06 7593   1.987   1.887   4.687
  400EMI    H0F 7594   1.933   1.910   4.597
  400EMI    C0N 7595   2.099   1.990   4.706
  400EMI    H0O 7596   2.166   1.987   4.622
  400EMI    H0P 7597   2.057   2.089   4.713
  400EMI    H0Q 7598   2.154   1.968   4.795
  400EMI    N02 7599   1.895   1.893   4.802
  400EMI    H0E 7600   2.029   1.789   4.679
  401EMI    C01 7601   1.954   0.664   1.081
  401EMI    C04 7602   1.955   0.563   0.879
  401EMI    C03 7603   1.906   0.686   0.861
  401EMI    H07 7604   1.966   0.683   1.185
  401EMI    H09 7605   1.970   0.488   0.804
  401EMI    H08 7606   1.873   0.729   0.769
  401EMI    C05 7607   1.861   0.885   1.023
  401EMI    H0B 7608   1.916   0.924   1.107
  401EMI    H0C 7609   1.876   0.948   0.938
  401EMI    H0D 7610   1.757   0.883   1.048
  401EMI    N00 7611   1.907   0.749   0.994
  401EMI    C06 7612   2.042   0.433   1.088
  401EMI    H0F 7613   1.963   0.369   1.121
  401EMI    C0N 7614   2.132   0.356   0.989
  401EMI    H0O 7615   2.173   0.270   1.037
  401EMI    H0P 7616   2.073   0.325   0.904
  401EMI    H0Q 7617   2.211   0.420   0.956
  401EMI    N02 7618   1.986   0.551   1.022
  401EMI    H0E 7619   2.101   0.464   1.172
  402EMI    C01 7620   1.165   1.338   3.561
  402EMI    C04 7621   1.121   1.237   3.758
  402EMI    C03 7622   1.196   1.343   3.785
  402EMI    H07 7623   1.169   1.362   3.457
  402EMI    H09 7624   1.082   1.166   3.828
  402EMI    H08 7625   1.230   1.376   3.881
  402EMI    C05 7626   1.304   1.529   3.636
  402EMI    H0B 7627   1.267   1.582   3.550
  402EMI    H0C 7628   1.295   1.592   3.722
  402EMI    H0D 7629   1.406   1.502   3.621
  402EMI    N00 7630   1.224   1.407   3.656
  402EMI    C06 7631   1.025   1.136   3.536
  402EMI    H0F 7632   1.090   1.056   3.507
  402EMI    C0N 7633   0.911   1.082   3.624
  402EMI    H0O 7634   0.855   1.009   3.569
  402EMI    H0P 7635   0.952   1.036   3.712
  402EMI    H0Q 7636   0.847   1.162   3.653
  402EMI    N02 7637   1.102   1.236   3.612
  402EMI    H0E 7638   0.984   1.182   3.449
  403EMI    C01 7639   1.444   3.292   1.081
  403EMI    C04 7640   1.621   3.207   0.970
  403EMI    C03 7641   1.625   3.340   0.955
  403EMI    H07 7642   1.356   3.301   1.141
  403EMI    H09 7643   1.690   3.136   0.929
  403EMI    H08 7644   1.697   3.397   0.900
  403EMI    C05 7645   1.472   3.534   1.040
  403EMI    H0B 7646   1.423   3.550   1.133
  403EMI    H0C 7647   1.561   3.594   1.035
  403EMI    H0D 7648   1.407   3.561   0.959
  403EMI    N00 7649   1.509   3.392   1.028
  403EMI    C06 7650   1.458   3.046   1.095
  403EMI    H0F 7651   1.391   3.006   1.022
  403EMI    C0N 7652   1.580   2.953   1.109
  403EMI    H0O 7653   1.548   2.856   1.140
  403EMI    H0P 7654   1.630   2.945   1.015
  403EMI    H0Q 7655   1.648   2.993   1.182
  403EMI    N02 7656   1.503   3.179   1.052
  403EMI    H0E 7657   1.408   3.053   1.189
  404EMI    C01 7658   3.992   2.429   2.641
  404EMI    C04 7659   4.155   2.384   2.791
  404EMI    C03 7660   4.168   2.297   2.690
  404EMI    H07 7661   3.907   2.472   2.592
  404EMI    H09 7662   4.215   2.391   2.878
  404EMI    H08 7663   4.242   2.220   2.681
  404EMI    C05 7664   4.037   2.258   2.468
  404EMI    H0B 7665   3.994   2.326   2.397
  404EMI    H0C 7666   4.129   2.220   2.430
  404EMI    H0D 7667   3.969   2.176   2.485
  404EMI    N00 7668   4.061   2.328   2.595
  404EMI    C06 7669   3.987   2.578   2.837
  404EMI    H0F 7670   3.913   2.541   2.905
  404EMI    C0N 7671   4.101   2.642   2.918
  404EMI    H0O 7672   4.063   2.723   2.977
  404EMI    H0P 7673   4.145   2.569   2.982
  404EMI    H0Q 7674   4.176   2.680   2.850
  404EMI    N02 7675   4.040   2.468   2.756
  404EMI    H0E 7676   3.943   2.652   2.773
  405EMI    C01 7677   1.730   0.755   2.103
  405EMI    C04 7678   1.914   0.642   2.036
  405EMI    C03 7679   1.810   0.557   2.030
  405EMI    H07 7680   1.665   0.832   2.138
  405EMI    H09 7681   2.016   0.622   2.012
  405EMI    H08 7682   1.813   0.455   2.000
  405EMI    C05 7683   1.556   0.581   2.084
  405EMI    H0B 7684   1.486   0.660   2.066
  405EMI    H0C 7685   1.542   0.504   2.010
  405EMI    H0D 7686   1.540   0.540   2.181
  405EMI    N00 7687   1.693   0.633   2.074
  405EMI    C06 7688   1.935   0.893   2.106
  405EMI    H0F 7689   1.971   0.895   2.207
  405EMI    C0N 7690   2.055   0.898   2.009
  405EMI    H0O 7691   2.110   0.987   2.025
  405EMI    H0P 7692   2.118   0.813   2.026
  405EMI    H0Q 7693   2.019   0.896   1.908
  405EMI    N02 7694   1.859   0.770   2.084
  405EMI    H0E 7695   1.872   0.978   2.089
  406EMI    C01 7696   0.481   4.151   2.004
  406EMI    C04 7697   0.654   4.065   1.887
  406EMI    C03 7698   0.545   4.053   1.811
  406EMI    H07 7699   0.423   4.197   2.081
  406EMI    H09 7700   0.753   4.034   1.862
  406EMI    H08 7701   0.539   4.010   1.713
  406EMI    C05 7702   0.294   4.118   1.846
  406EMI    H0B 7703   0.248   4.203   1.891
  406EMI    H0C 7704   0.290   4.127   1.740
  406EMI    H0D 7705   0.242   4.029   1.876
  406EMI    N00 7706   0.434   4.110   1.889
  406EMI    C06 7707   0.696   4.163   2.126
  406EMI    H0F 7708   0.699   4.081   2.194
  406EMI    C0N 7709   0.839   4.193   2.075
  406EMI    H0O 7710   0.901   4.218   2.158
  406EMI    H0P 7711   0.878   4.107   2.025
  406EMI    H0Q 7712   0.836   4.276   2.007
  406EMI    N02 7713   0.610   4.129   2.011
  406EMI    H0E 7714   0.657   4.249   2.175
  407EMI    C01 7715   4.074   4.917   3.213
  407EMI    C04 7716   4.098   4.958   2.993
  407EMI    C03 7717   3.978   5.004   3.028
  407EMI    H07 7718   4.092   4.885   3.314
  407EMI    H09 7719   4.142   4.961   2.895
  407EMI    H08 7720   3.906   5.051   2.965
  407EMI    C05 7721   3.849   5.009   3.255
  407EMI    H0B 7722   3.881   5.028   3.356
  407EMI    H0C 7723   3.801   5.097   3.216
  407EMI    H0D 7724   3.780   4.927   3.255
  407EMI    N00 7725   3.965   4.976   3.172
  407EMI    C06 7726   4.291   4.840   3.124
  407EMI    H0F 7727   4.282   4.735   3.105
  407EMI    C0N 7728   4.385   4.903   3.019
  407EMI    H0O 7729   4.481   4.858   3.026
  407EMI    H0P 7730   4.345   4.887   2.921
  407EMI    H0Q 7731   4.393   5.008   3.038
  407EMI    N02 7732   4.158   4.902   3.114
  407EMI    H0E 7733   4.331   4.855   3.221
  408EMI    C01 7734   2.344   3.046   1.135
  408EMI    C04 7735   2.535   3.143   1.062
  408EMI    C03 7736   2.488   3.219   1.161
  408EMI    H07 7737   2.262   2.980   1.147
  408EMI    H09 7738   2.623   3.160   1.004
  408EMI    H08 7739   2.531   3.309   1.200
  408EMI    C05 7740   2.278   3.202   1.316
  408EMI    H0B 7741   2.230   3.118   1.363
  408EMI    H0C 7742   2.337   3.255   1.388
  408EMI    H0D 7743   2.204   3.268   1.276
  408EMI    N00 7744   2.365   3.154   1.207
  408EMI    C06 7745   2.450   2.923   0.949
  408EMI    H0F 7746   2.400   2.950   0.859
  408EMI    C0N 7747   2.599   2.896   0.919
  408EMI    H0O 7748   2.607   2.816   0.847
  408EMI    H0P 7749   2.644   2.984   0.878
  408EMI    H0Q 7750   2.650   2.868   1.009
  408EMI    N02 7751   2.440   3.032   1.047
  408EMI    H0E 7752   2.406   2.834   0.990
  409EMI    C01 7753   1.520   3.287   4.418
  409EMI    C04 7754   1.565   3.419   4.596
  409EMI    C03 7755   1.499   3.312   4.642
  409EMI    H07 7756   1.514   3.249   4.319
  409EMI    H09 7757   1.602   3.501   4.654
  409EMI    H08 7758   1.472   3.291   4.743
  409EMI    C05 7759   1.400   3.100   4.526
  409EMI    H0B 7760   1.436   3.038   4.446
  409EMI    H0C 7761   1.417   3.051   4.619
  409EMI    H0D 7762   1.295   3.117   4.513
  409EMI    N00 7763   1.471   3.228   4.525
  409EMI    C06 7764   1.643   3.494   4.359
  409EMI    H0F 7765   1.571   3.564   4.323
  409EMI    C0N 7766   1.756   3.568   4.432
  409EMI    H0O 7767   1.804   3.635   4.364
  409EMI    H0P 7768   1.716   3.622   4.514
  409EMI    H0Q 7769   1.828   3.497   4.467
  409EMI    N02 7770   1.577   3.400   4.451
  409EMI    H0E 7771   1.683   3.439   4.276
  410EMI    C01 7772   1.479   3.035   1.397
  410EMI    C04 7773   1.293   2.917   1.445
  410EMI    C03 7774   1.396   2.833   1.454
  410EMI    H07 7775   1.545   3.115   1.371
  410EMI    H09 7776   1.189   2.894   1.461
  410EMI    H08 7777   1.393   2.729   1.480
  410EMI    C05 7778   1.654   2.862   1.421
  410EMI    H0B 7779   1.721   2.941   1.447
  410EMI    H0C 7780   1.664   2.782   1.491
  410EMI    H0D 7781   1.677   2.826   1.323
  410EMI    N00 7782   1.516   2.912   1.423
  410EMI    C06 7783   1.272   3.170   1.385
  410EMI    H0F 7784   1.243   3.176   1.282
  410EMI    C0N 7785   1.146   3.169   1.474
  410EMI    H0O 7786   1.090   3.258   1.458
  410EMI    H0P 7787   1.086   3.084   1.448
  410EMI    H0Q 7788   1.175   3.162   1.577
  410EMI    N02 7789   1.349   3.047   1.407
  410EMI    H0E 7790   1.332   3.255   1.411
  411EMI    C01 7791   2.866   1.661   3.008
  411EMI    C04 7792   2.656   1.590   3.050
  411EMI    C03 7793   2.727   1.572   3.162
  411EMI    H07 7794   2.953   1.701   2.960
  411EMI    H09 7795   2.553   1.567   3.034
  411EMI    H08 7796   2.692   1.531   3.254
  411EMI    C05 7797   2.976   1.618   3.226
  411EMI    H0B 7798   3.042   1.699   3.202
  411EMI    H0C 7799   2.939   1.629   3.326
  411EMI    H0D 7800   3.029   1.525   3.217
  411EMI    N00 7801   2.863   1.619   3.132
  411EMI    C06 7802   2.716   1.686   2.814
  411EMI    H0F 7803   2.733   1.602   2.749
  411EMI    C0N 7804   2.568   1.727   2.806
  411EMI    H0O 7805   2.543   1.754   2.706
  411EMI    H0P 7806   2.506   1.645   2.837
  411EMI    H0Q 7807   2.550   1.811   2.871
  411EMI    N02 7808   2.749   1.648   2.952
  411EMI    H0E 7809   2.777   1.768   2.783
  412EMI    C01 7810   2.474   2.573   1.592
  412EMI    C04 7811   2.406   2.787   1.616
  412EMI    C03 7812   2.300   2.709   1.640
  412EMI    H07 7813   2.533   2.486   1.574
  412EMI    H09 7814   2.410   2.894   1.620
  412EMI    H08 7815   2.201   2.741   1.665
  412EMI    C05 7816   2.264   2.450   1.639
  412EMI    H0B 7817   2.325   2.369   1.672
  412EMI    H0C 7818   2.187   2.469   1.710
  412EMI    H0D 7819   2.220   2.425   1.545
  412EMI    N00 7820   2.347   2.571   1.623
  412EMI    C06 7821   2.655   2.737   1.553
  412EMI    H0F 7822   2.664   2.750   1.448
  412EMI    C0N 7823   2.687   2.869   1.625
  412EMI    H0O 7824   2.787   2.899   1.602
  412EMI    H0P 7825   2.619   2.945   1.593
  412EMI    H0Q 7826   2.678   2.855   1.731
  412EMI    N02 7827   2.517   2.696   1.586
  412EMI    H0E 7828   2.723   2.661   1.586
  413EMI    C01 7829   1.131   3.692   1.928
  413EMI    C04 7830   0.944   3.578   1.876
  413EMI    C03 7831   0.992   3.525   1.988
  413EMI    H07 7832   1.213   3.762   1.926
  413EMI    H09 7833   0.856   3.548   1.823
  413EMI    H08 7834   0.950   3.444   2.044
  413EMI    C05 7835   1.201   3.578   2.136
  413EMI    H0B 7836   1.246   3.670   2.165
  413EMI    H0C 7837   1.143   3.540   2.217
  413EMI    H0D 7838   1.277   3.507   2.110
  413EMI    N00 7839   1.113   3.601   2.020
  413EMI    C06 7840   1.023   3.773   1.721
  413EMI    H0F 7841   1.075   3.729   1.638
  413EMI    C0N 7842   0.874   3.790   1.685
  413EMI    H0O 7843   0.865   3.853   1.599
  413EMI    H0P 7844   0.832   3.694   1.664
  413EMI    H0Q 7845   0.823   3.834   1.768
  413EMI    N02 7846   1.036   3.686   1.839
  413EMI    H0E 7847   1.066   3.868   1.743
  414EMI    C01 7848   3.135   3.796   2.301
  414EMI    C04 7849   3.147   3.743   2.082
  414EMI    C03 7850   3.256   3.692   2.141
  414EMI    H07 7851   3.102   3.835   2.395
  414EMI    H09 7852   3.121   3.737   1.979
  414EMI    H08 7853   3.334   3.637   2.094
  414EMI    C05 7854   3.343   3.693   2.387
  414EMI    H0B 7855   3.292   3.683   2.481
  414EMI    H0C 7856   3.391   3.601   2.362
  414EMI    H0D 7857   3.416   3.771   2.395
  414EMI    N00 7858   3.245   3.728   2.283
  414EMI    C06 7859   2.943   3.880   2.170
  414EMI    H0F 7860   2.961   3.983   2.148
  414EMI    C0N 7861   2.865   3.816   2.054
  414EMI    H0O 7862   2.771   3.867   2.041
  414EMI    H0P 7863   2.922   3.823   1.964
  414EMI    H0Q 7864   2.846   3.713   2.077
  414EMI    N02 7865   3.071   3.810   2.188
  414EMI    H0E 7866   2.885   3.873   2.260
  415EMI    C01 7867   1.747   3.705   0.536
  415EMI    C04 7868   1.686   3.782   0.740
  415EMI    C03 7869   1.576   3.733   0.680
  415EMI    H07 7870   1.805   3.679   0.450
  415EMI    H09 7871   1.693   3.826   0.837
  415EMI    H08 7872   1.477   3.731   0.721
  415EMI    C05 7873   1.532   3.623   0.448
  415EMI    H0B 7874   1.588   3.553   0.390
  415EMI    H0C 7875   1.451   3.572   0.497
  415EMI    H0D 7876   1.492   3.699   0.384
  415EMI    N00 7877   1.619   3.685   0.549
  415EMI    C06 7878   1.936   3.800   0.665
  415EMI    H0F 7879   1.951   3.900   0.631
  415EMI    C0N 7880   1.969   3.792   0.816
  415EMI    H0O 7881   2.071   3.819   0.831
  415EMI    H0P 7882   1.905   3.859   0.870
  415EMI    H0Q 7883   1.953   3.692   0.850
  415EMI    N02 7884   1.795   3.762   0.644
  415EMI    H0E 7885   1.999   3.733   0.611
  416EMI    C01 7886   1.535   2.013   2.950
  416EMI    C04 7887   1.425   1.955   2.761
  416EMI    C03 7888   1.551   1.914   2.747
  416EMI    H07 7889   1.558   2.052   3.047
  416EMI    H09 7890   1.345   1.944   2.691
  416EMI    H08 7891   1.593   1.863   2.663
  416EMI    C05 7892   1.762   1.927   2.901
  416EMI    H0B 7893   1.774   1.916   3.007
  416EMI    H0C 7894   1.793   1.838   2.851
  416EMI    H0D 7895   1.821   2.010   2.867
  416EMI    N00 7896   1.620   1.952   2.871
  416EMI    C06 7897   1.297   2.080   2.952
  416EMI    H0F 7898   1.293   2.183   2.925
  416EMI    C0N 7899   1.172   2.007   2.900
  416EMI    H0O 7900   1.084   2.052   2.943
  416EMI    H0P 7901   1.168   2.016   2.793
  416EMI    H0Q 7902   1.176   1.904   2.927
  416EMI    N02 7903   1.417   2.019   2.893
  416EMI    H0E 7904   1.301   2.071   3.059
  417EMI    C01 7905   2.849   1.009   3.421
  417EMI    C04 7906   3.056   0.922   3.436
  417EMI    C03 7907   3.060   1.043   3.493
  417EMI    H07 7908   2.745   1.022   3.400
  417EMI    H09 7909   3.138   0.853   3.426
  417EMI    H08 7910   3.145   1.091   3.538
  417EMI    C05 7911   2.880   1.228   3.531
  417EMI    H0B 7912   2.777   1.223   3.558
  417EMI    H0C 7913   2.938   1.256   3.616
  417EMI    H0D 7914   2.893   1.301   3.454
  417EMI    N00 7915   2.924   1.097   3.482
  417EMI    C06 7916   2.867   0.783   3.322
  417EMI    H0F 7917   2.878   0.795   3.216
  417EMI    C0N 7918   2.946   0.659   3.368
  417EMI    H0O 7919   2.908   0.573   3.318
  417EMI    H0P 7920   3.050   0.672   3.344
  417EMI    H0Q 7921   2.935   0.647   3.474
  417EMI    N02 7922   2.918   0.903   3.391
  417EMI    H0E 7923   2.763   0.770   3.346
  418EMI    C01 7924   0.187   1.003   4.373
  418EMI    C04 7925   0.316   0.825   4.425
  418EMI    C03 7926   0.316   0.836   4.292
  418EMI    H07 7927   0.123   1.088   4.381
  418EMI    H09 7928   0.367   0.751   4.484
  418EMI    H08 7929   0.367   0.773   4.222
  418EMI    C05 7930   0.202   1.003   4.127
  418EMI    H0B 7931   0.186   1.109   4.131
  418EMI    H0C 7932   0.284   0.982   4.062
  418EMI    H0D 7933   0.114   0.955   4.089
  418EMI    N00 7934   0.232   0.952   4.261
  418EMI    C06 7935   0.203   0.962   4.617
  418EMI    H0F 7936   0.115   0.908   4.646
  418EMI    C0N 7937   0.322   0.916   4.703
  418EMI    H0O 7938   0.301   0.937   4.806
  418EMI    H0P 7939   0.338   0.811   4.690
  418EMI    H0Q 7940   0.410   0.970   4.674
  418EMI    N02 7941   0.232   0.934   4.475
  418EMI    H0E 7942   0.187   1.067   4.630
  419EMI    C01 7943   3.740   1.981   3.141
  419EMI    C04 7944   3.514   1.986   3.135
  419EMI    C03 7945   3.555   2.094   3.204
  419EMI    H07 7946   3.842   1.951   3.126
  419EMI    H09 7947   3.413   1.958   3.114
  419EMI    H08 7948   3.493   2.169   3.249
  419EMI    C05 7949   3.791   2.185   3.271
  419EMI    H0B 7950   3.883   2.189   3.217
  419EMI    H0C 7951   3.744   2.281   3.270
  419EMI    H0D 7952   3.809   2.155   3.372
  419EMI    N00 7953   3.701   2.087   3.206
  419EMI    C06 7954   3.641   1.791   3.018
  419EMI    H0F 7955   3.638   1.707   3.084
  419EMI    C0N 7956   3.519   1.785   2.923
  419EMI    H0O 7957   3.522   1.694   2.867
  419EMI    H0P 7958   3.429   1.787   2.981
  419EMI    H0Q 7959   3.521   1.868   2.857
  419EMI    N02 7960   3.636   1.915   3.096
  419EMI    H0E 7961   3.731   1.788   2.960
  420EMI    C01 7962   0.736   1.389   3.085
  420EMI    C04 7963   0.842   1.490   2.913
  420EMI    C03 7964   0.820   1.583   3.006
  420EMI    H07 7965   0.689   1.315   3.147
  420EMI    H09 7966   0.890   1.504   2.818
  420EMI    H08 7967   0.847   1.687   3.001
  420EMI    C05 7968   0.707   1.578   3.241
  420EMI    H0B 7969   0.710   1.505   3.320
  420EMI    H0C 7970   0.772   1.659   3.266
  420EMI    H0D 7971   0.607   1.614   3.230
  420EMI    N00 7972   0.752   1.515   3.116
  420EMI    C06 7973   0.788   1.235   2.898
  420EMI    H0F 7974   0.699   1.225   2.839
  420EMI    C0N 7975   0.911   1.226   2.806
  420EMI    H0O 7976   0.912   1.131   2.757
  420EMI    H0P 7977   0.907   1.304   2.734
  420EMI    H0Q 7978   1.000   1.236   2.865
  420EMI    N02 7979   0.787   1.365   2.966
  420EMI    H0E 7980   0.792   1.157   2.971
  421EMI    C01 7981   2.699   3.319   2.476
  421EMI    C04 7982   2.671   3.459   2.650
  421EMI    C03 7983   2.643   3.336   2.694
  421EMI    H07 7984   2.720   3.280   2.379
  421EMI    H09 7985   2.667   3.550   2.707
  421EMI    H08 7986   2.614   3.307   2.793
  421EMI    C05 7987   2.644   3.101   2.579
  421EMI    H0B 7988   2.710   3.057   2.508
  421EMI    H0C 7989   2.666   3.063   2.677
  421EMI    H0D 7990   2.543   3.078   2.554
  421EMI    N00 7991   2.663   3.247   2.579
  421EMI    C06 7992   2.744   3.555   2.419
  421EMI    H0F 7993   2.656   3.594   2.372
  421EMI    C0N 7994   2.812   3.667   2.500
  421EMI    H0O 7995   2.840   3.747   2.435
  421EMI    H0P 7996   2.744   3.703   2.575
  421EMI    H0Q 7997   2.900   3.628   2.548
  421EMI    N02 7998   2.706   3.445   2.509
  421EMI    H0E 7999   2.812   3.519   2.345
  422EMI    C01 8000   4.552   4.578   3.511
  422EMI    C04 8001   4.429   4.494   3.341
  422EMI    C03 8002   4.548   4.434   3.337
  422EMI    H07 8003   4.583   4.634   3.596
  422EMI    H09 8004   4.347   4.479   3.274
  422EMI    H08 8005   4.581   4.359   3.267
  422EMI    C05 8006   4.763   4.453   3.484
  422EMI    H0B 8007   4.777   4.465   3.589
  422EMI    H0C 8008   4.781   4.351   3.457
  422EMI    H0D 8009   4.832   4.516   3.432
  422EMI    N00 8010   4.626   4.490   3.448
  422EMI    C06 8011   4.326   4.676   3.497
  422EMI    H0F 8012   4.334   4.770   3.446
  422EMI    C0N 8013   4.190   4.612   3.462
  422EMI    H0O 8014   4.111   4.676   3.493
  422EMI    H0P 8015   4.184   4.596   3.356
  422EMI    H0Q 8016   4.181   4.518   3.513
  422EMI    N02 8017   4.435   4.587   3.454
  422EMI    H0E 8018   4.332   4.692   3.602
  423EMI    C01 8019   4.168   0.905   4.063
  423EMI    C04 8020   4.056   0.720   4.128
  423EMI    C03 8021   4.181   0.710   4.176
  423EMI    H07 8022   4.193   0.999   4.018
  423EMI    H09 8023   3.976   0.650   4.140
  423EMI    H08 8024   4.221   0.630   4.234
  423EMI    C05 8025   4.391   0.863   4.161
  423EMI    H0B 8026   4.403   0.970   4.166
  423EMI    H0C 8027   4.419   0.820   4.255
  423EMI    H0D 8028   4.454   0.824   4.084
  423EMI    N00 8029   4.251   0.831   4.132
  423EMI    C06 8030   3.934   0.902   3.985
  423EMI    H0F 8031   3.934   0.868   3.884
  423EMI    C0N 8032   3.805   0.853   4.056
  423EMI    H0O 8033   3.720   0.893   4.005
  423EMI    H0P 8034   3.802   0.746   4.054
  423EMI    H0Q 8035   3.805   0.888   4.157
  423EMI    N02 8036   4.051   0.848   4.055
  423EMI    H0E 8037   3.937   1.009   3.987
  424EMI    C01 8038   3.433   4.267   3.251
  424EMI    C04 8039   3.573   4.312   3.080
  424EMI    C03 8040   3.648   4.279   3.185
  424EMI    H07 8041   3.344   4.253   3.310
  424EMI    H09 8042   3.607   4.340   2.982
  424EMI    H08 8043   3.755   4.274   3.189
  424EMI    C05 8044   3.592   4.209   3.430
  424EMI    H0B 8045   3.515   4.147   3.472
  424EMI    H0C 8046   3.684   4.155   3.427
  424EMI    H0D 8047   3.605   4.296   3.492
  424EMI    N00 8048   3.555   4.250   3.294
  424EMI    C06 8049   3.315   4.332   3.043
  424EMI    H0F 8050   3.290   4.436   3.051
  424EMI    C0N 8051   3.345   4.298   2.896
  424EMI    H0O 8052   3.259   4.319   2.836
  424EMI    H0P 8053   3.427   4.358   2.862
  424EMI    H0Q 8054   3.371   4.195   2.888
  424EMI    N02 8055   3.434   4.304   3.125
  424EMI    H0E 8056   3.233   4.272   3.077
  425EMI    C01 8057   2.033   4.527   3.443
  425EMI    C04 8058   2.203   4.475   3.304
  425EMI    C03 8059   2.109   4.382   3.289
  425EMI    H07 8060   1.972   4.576   3.516
  425EMI    H09 8061   2.297   4.481   3.253
  425EMI    H08 8062   2.112   4.297   3.223
  425EMI    C05 8063   1.875   4.343   3.398
  425EMI    H0B 8064   1.797   4.411   3.425
  425EMI    H0C 8065   1.849   4.294   3.306
  425EMI    H0D 8066   1.888   4.270   3.475
  425EMI    N00 8067   2.000   4.418   3.380
  425EMI    C06 8068   2.221   4.688   3.454
  425EMI    H0F 8069   2.280   4.662   3.539
  425EMI    C0N 8070   2.311   4.745   3.343
  425EMI    H0O 8071   2.361   4.832   3.379
  425EMI    H0P 8072   2.383   4.671   3.315
  425EMI    H0Q 8073   2.251   4.771   3.258
  425EMI    N02 8074   2.151   4.568   3.405
  425EMI    H0E 8075   2.148   4.762   3.483
  426EMI    C01 8076   4.407   2.609   2.359
  426EMI    C04 8077   4.240   2.464   2.316
  426EMI    C03 8078   4.207   2.531   2.427
  426EMI    H07 8079   4.499   2.665   2.353
  426EMI    H09 8080   4.183   2.388   2.268
  426EMI    H08 8081   4.118   2.520   2.486
  426EMI    C05 8082   4.325   2.720   2.564
  426EMI    H0B 8083   4.381   2.806   2.534
  426EMI    H0C 8084   4.226   2.750   2.593
  426EMI    H0D 8085   4.373   2.673   2.648
  426EMI    N00 8086   4.317   2.625   2.452
  426EMI    C06 8087   4.447   2.473   2.157
  426EMI    H0F 8088   4.511   2.392   2.184
  426EMI    C0N 8089   4.349   2.425   2.047
  426EMI    H0O 8090   4.405   2.393   1.962
  426EMI    H0P 8091   4.291   2.344   2.085
  426EMI    H0Q 8092   4.284   2.506   2.020
  426EMI    N02 8093   4.370   2.517   2.275
  426EMI    H0E 8094   4.505   2.554   2.120
  427EMI    C01 8095   4.082   2.459   1.210
  427EMI    C04 8096   4.151   2.530   1.007
  427EMI    C03 8097   4.212   2.413   1.031
  427EMI    H07 8098   4.033   2.452   1.305
  427EMI    H09 8099   4.161   2.591   0.920
  427EMI    H08 8100   4.281   2.362   0.967
  427EMI    C05 8101   4.206   2.246   1.231
  427EMI    H0B 8102   4.126   2.212   1.294
  427EMI    H0C 8103   4.228   2.171   1.158
  427EMI    H0D 8104   4.292   2.264   1.291
  427EMI    N00 8105   4.165   2.369   1.163
  427EMI    C06 8106   3.982   2.675   1.144
  427EMI    H0F 8107   4.038   2.752   1.192
  427EMI    C0N 8108   3.932   2.725   1.007
  427EMI    H0O 8109   3.870   2.811   1.021
  427EMI    H0P 8110   4.016   2.751   0.946
  427EMI    H0Q 8111   3.876   2.647   0.959
  427EMI    N02 8112   4.068   2.557   1.125
  427EMI    H0E 8113   3.898   2.648   1.205
  428EMI    C01 8114   1.454   3.748   4.258
  428EMI    C04 8115   1.578   3.881   4.124
  428EMI    C03 8116   1.531   3.780   4.048
  428EMI    H07 8117   1.405   3.707   4.343
  428EMI    H09 8118   1.640   3.962   4.091
  428EMI    H08 8119   1.549   3.765   3.944
  428EMI    C05 8120   1.381   3.573   4.100
  428EMI    H0B 8121   1.294   3.561   4.162
  428EMI    H0C 8122   1.351   3.580   3.997
  428EMI    H0D 8123   1.446   3.489   4.112
  428EMI    N00 8124   1.452   3.696   4.138
  428EMI    C06 8125   1.552   3.942   4.376
  428EMI    H0F 8126   1.640   3.909   4.426
  428EMI    C0N 8127   1.571   4.088   4.330
  428EMI    H0O 8128   1.590   4.150   4.415
  428EMI    H0P 8129   1.655   4.094   4.263
  428EMI    H0Q 8130   1.483   4.122   4.280
  428EMI    N02 8131   1.527   3.857   4.259
  428EMI    H0E 8132   1.468   3.937   4.443
  429EMI    C01 8133   3.058   0.927   1.557
  429EMI    C04 8134   2.876   0.832   1.651
  429EMI    C03 8135   2.948   0.734   1.594
  429EMI    H07 8136   3.131   0.998   1.524
  429EMI    H09 8137   2.784   0.822   1.704
  429EMI    H08 8138   2.924   0.629   1.593
  429EMI    C05 8139   3.172   0.730   1.460
  429EMI    H0B 8140   3.264   0.783   1.473
  429EMI    H0C 8141   3.183   0.630   1.498
  429EMI    H0D 8142   3.147   0.726   1.356
  429EMI    N00 8143   3.065   0.798   1.534
  429EMI    C06 8144   2.910   1.090   1.668
  429EMI    H0F 8145   2.849   1.135   1.593
  429EMI    C0N 8146   2.830   1.079   1.799
  429EMI    H0O 8147   2.800   1.177   1.831
  429EMI    H0P 8148   2.742   1.019   1.783
  429EMI    H0Q 8149   2.890   1.034   1.875
  429EMI    N02 8150   2.950   0.956   1.625
  429EMI    H0E 8151   2.997   1.150   1.684
  430EMI    C01 8152   1.659   0.922   2.657
  430EMI    C04 8153   1.865   1.008   2.625
  430EMI    C03 8154   1.878   0.875   2.626
  430EMI    H07 8155   1.554   0.912   2.673
  430EMI    H09 8156   1.943   1.080   2.611
  430EMI    H08 8157   1.968   0.819   2.614
  430EMI    C05 8158   1.708   0.680   2.656
  430EMI    H0B 8159   1.608   0.665   2.620
  430EMI    H0C 8160   1.776   0.622   2.597
  430EMI    H0D 8161   1.714   0.648   2.758
  430EMI    N00 8162   1.743   0.822   2.647
  430EMI    C06 8163   1.661   1.169   2.651
  430EMI    H0F 8164   1.661   1.204   2.752
  430EMI    C0N 8165   1.742   1.267   2.563
  430EMI    H0O 8166   1.697   1.364   2.567
  430EMI    H0P 8167   1.842   1.272   2.599
  430EMI    H0Q 8168   1.742   1.232   2.462
  430EMI    N02 8169   1.723   1.036   2.645
  430EMI    H0E 8170   1.560   1.163   2.615
  431EMI    C01 8171   5.031   1.108   2.919
  431EMI    C04 8172   4.876   1.271   2.938
  431EMI    C03 8173   4.853   1.183   3.035
  431EMI    H07 8174   5.114   1.050   2.885
  431EMI    H09 8175   4.821   1.361   2.918
  431EMI    H08 8176   4.775   1.187   3.109
  431EMI    C05 8177   4.969   0.960   3.106
  431EMI    H0B 8178   5.072   0.930   3.110
  431EMI    H0C 8179   4.934   0.982   3.204
  431EMI    H0D 8180   4.911   0.879   3.065
  431EMI    N00 8181   4.955   1.078   3.020
  431EMI    C06 8182   5.055   1.285   2.747
  431EMI    H0F 8183   5.008   1.250   2.658
  431EMI    C0N 8184   5.036   1.438   2.758
  431EMI    H0O 8185   5.081   1.485   2.673
  431EMI    H0P 8186   4.932   1.461   2.760
  431EMI    H0Q 8187   5.082   1.473   2.847
  431EMI    N02 8188   4.992   1.221   2.864
  431EMI    H0E 8189   5.159   1.262   2.745
  432EMI    C01 8190   1.698   2.368   0.221
  432EMI    C04 8191   1.790   2.166   0.179
  432EMI    C03 8192   1.659   2.157   0.151
  432EMI    H07 8193   1.685   2.470   0.249
  432EMI    H09 8194   1.863   2.089   0.170
  432EMI    H08 8195   1.607   2.071   0.116
  432EMI    C05 8196   1.461   2.327   0.164
  432EMI    H0B 8197   1.455   2.431   0.140
  432EMI    H0C 8198   1.418   2.269   0.085
  432EMI    H0D 8199   1.409   2.308   0.255
  432EMI    N00 8200   1.603   2.289   0.180
  432EMI    C06 8201   1.941   2.360   0.266
  432EMI    H0F 8202   1.954   2.346   0.371
  432EMI    C0N 8203   2.055   2.290   0.189
  432EMI    H0O 8204   2.149   2.331   0.219
  432EMI    H0P 8205   2.053   2.185   0.211
  432EMI    H0Q 8206   2.042   2.305   0.084
  432EMI    N02 8207   1.812   2.304   0.224
  432EMI    H0E 8208   1.943   2.465   0.243
  433EMI    C01 8209   2.276   1.107   3.424
  433EMI    C04 8210   2.448   1.020   3.541
  433EMI    C03 8211   2.412   0.929   3.450
  433EMI    H07 8212   2.199   1.173   3.389
  433EMI    H09 8213   2.527   1.011   3.613
  433EMI    H08 8214   2.455   0.832   3.434
  433EMI    C05 8215   2.227   0.924   3.266
  433EMI    H0B 8216   2.190   0.999   3.199
  433EMI    H0C 8217   2.292   0.858   3.213
  433EMI    H0D 8218   2.144   0.869   3.305
  433EMI    N00 8219   2.300   0.988   3.376
  433EMI    C06 8220   2.361   1.259   3.600
  433EMI    H0F 8221   2.297   1.249   3.685
  433EMI    C0N 8222   2.505   1.287   3.647
  433EMI    H0O 8223   2.507   1.378   3.703
  433EMI    H0P 8224   2.539   1.206   3.708
  433EMI    H0Q 8225   2.569   1.297   3.562
  433EMI    N02 8226   2.358   1.134   3.522
  433EMI    H0E 8227   2.327   1.340   3.538
  434EMI    C01 8228   3.096   2.554   4.368
  434EMI    C04 8229   3.116   2.683   4.552
  434EMI    C03 8230   2.995   2.625   4.557
  434EMI    H07 8231   3.116   2.504   4.276
  434EMI    H09 8232   3.158   2.750   4.624
  434EMI    H08 8233   2.921   2.638   4.633
  434EMI    C05 8234   2.869   2.461   4.398
  434EMI    H0B 8235   2.903   2.376   4.342
  434EMI    H0C 8236   2.819   2.427   4.486
  434EMI    H0D 8237   2.802   2.519   4.338
  434EMI    N00 8238   2.985   2.543   4.436
  434EMI    C06 8239   3.313   2.671   4.382
  434EMI    H0F 8240   3.307   2.758   4.320
  434EMI    C0N 8241   3.404   2.700   4.503
  434EMI    H0O 8242   3.502   2.727   4.469
  434EMI    H0P 8243   3.363   2.781   4.560
  434EMI    H0Q 8244   3.410   2.613   4.565
  434EMI    N02 8245   3.179   2.635   4.429
  434EMI    H0E 8246   3.355   2.590   4.326
  435EMI    C01 8247   2.545   0.345   4.111
  435EMI    C04 8248   2.371   0.425   4.230
  435EMI    C03 8249   2.432   0.530   4.173
  435EMI    H07 8250   2.617   0.280   4.065
  435EMI    H09 8251   2.285   0.427   4.294
  435EMI    H08 8252   2.404   0.633   4.182
  435EMI    C05 8253   2.639   0.554   4.017
  435EMI    H0B 8254   2.674   0.495   3.935
  435EMI    H0C 8255   2.590   0.642   3.980
  435EMI    H0D 8256   2.722   0.583   4.078
  435EMI    N00 8257   2.544   0.475   4.097
  435EMI    C06 8258   2.418   0.168   4.226
  435EMI    H0F 8259   2.470   0.144   4.316
  435EMI    C0N 8260   2.266   0.152   4.250
  435EMI    H0O 8261   2.245   0.051   4.277
  435EMI    H0P 8262   2.235   0.218   4.328
  435EMI    H0Q 8263   2.214   0.177   4.160
  435EMI    N02 8264   2.447   0.307   4.188
  435EMI    H0E 8265   2.449   0.102   4.148
  436EMI    C01 8266   2.719   0.815   3.050
  436EMI    C04 8267   2.712   1.011   3.162
  436EMI    C03 8268   2.604   0.941   3.198
  436EMI    H07 8269   2.750   0.735   2.986
  436EMI    H09 8270   2.740   1.108   3.196
  436EMI    H08 8271   2.528   0.971   3.267
  436EMI    C05 8272   2.513   0.705   3.132
  436EMI    H0B 8273   2.562   0.612   3.114
  436EMI    H0C 8274   2.468   0.704   3.229
  436EMI    H0D 8275   2.437   0.720   3.058
  436EMI    N00 8276   2.611   0.814   3.124
  436EMI    C06 8277   2.911   0.962   3.000
  436EMI    H0F 8278   2.890   1.013   2.908
  436EMI    C0N 8279   2.993   1.056   3.091
  436EMI    H0O 8280   3.085   1.082   3.042
  436EMI    H0P 8281   2.937   1.144   3.111
  436EMI    H0Q 8282   3.014   1.005   3.183
  436EMI    N02 8283   2.785   0.927   3.066
  436EMI    H0E 8284   2.967   0.874   2.980
  437EMI    C01 8285   1.543   2.751   0.187
  437EMI    C04 8286   1.614   2.956   0.251
  437EMI    C03 8287   1.481   2.960   0.246
  437EMI    H07 8288   1.540   2.649   0.157
  437EMI    H09 8289   1.681   3.035   0.277
  437EMI    H08 8290   1.418   3.044   0.268
  437EMI    C05 8291   1.298   2.784   0.186
  437EMI    H0B 8292   1.289   2.680   0.207
  437EMI    H0C 8293   1.234   2.839   0.252
  437EMI    H0D 8294   1.268   2.802   0.085
  437EMI    N00 8295   1.437   2.827   0.205
  437EMI    C06 8296   1.789   2.767   0.203
  437EMI    H0F 8297   1.826   2.784   0.104
  437EMI    C0N 8298   1.878   2.841   0.304
  437EMI    H0O 8299   1.978   2.803   0.298
  437EMI    H0P 8300   1.878   2.946   0.283
  437EMI    H0Q 8301   1.841   2.825   0.403
  437EMI    N02 8302   1.652   2.819   0.212
  437EMI    H0E 8303   1.789   2.663   0.224
  438EMI    C01 8304   0.380   1.863   1.273
  438EMI    C04 8305   0.299   1.858   1.484
  438EMI    C03 8306   0.206   1.804   1.404
  438EMI    H07 8307   0.443   1.879   1.189
  438EMI    H09 8308   0.293   1.871   1.590
  438EMI    H08 8309   0.110   1.766   1.434
  438EMI    C05 8310   0.194   1.761   1.147
  438EMI    H0B 8311   0.267   1.727   1.077
  438EMI    H0C 8312   0.129   1.679   1.172
  438EMI    H0D 8313   0.136   1.840   1.104
  438EMI    N00 8314   0.261   1.809   1.269
  438EMI    C06 8315   0.536   1.958   1.440
  438EMI    H0F 8316   0.525   2.064   1.437
  438EMI    C0N 8317   0.568   1.914   1.584
  438EMI    H0O 8318   0.660   1.959   1.615
  438EMI    H0P 8319   0.489   1.943   1.649
  438EMI    H0Q 8320   0.579   1.807   1.587
  438EMI    N02 8321   0.410   1.895   1.396
  438EMI    H0E 8322   0.615   1.928   1.375
  439EMI    C01 8323   2.955   1.688   1.792
  439EMI    C04 8324   3.099   1.796   1.928
  439EMI    C03 8325   3.172   1.724   1.842
  439EMI    H07 8326   2.865   1.653   1.746
  439EMI    H09 8327   3.136   1.859   2.006
  439EMI    H08 8328   3.279   1.718   1.837
  439EMI    C05 8329   3.110   1.564   1.645
  439EMI    H0B 8330   3.034   1.570   1.570
  439EMI    H0C 8331   3.204   1.593   1.603
  439EMI    H0D 8332   3.116   1.464   1.682
  439EMI    N00 8333   3.076   1.655   1.755
  439EMI    C06 8334   2.842   1.829   1.961
  439EMI    H0F 8335   2.812   1.765   2.042
  439EMI    C0N 8336   2.879   1.968   2.017
  439EMI    H0O 8337   2.794   2.010   2.067
  439EMI    H0P 8338   2.960   1.958   2.087
  439EMI    H0Q 8339   2.909   2.032   1.937
  439EMI    N02 8340   2.959   1.771   1.893
  439EMI    H0E 8341   2.762   1.839   1.891
  440EMI    C01 8342   3.852   2.558   1.765
  440EMI    C04 8343   3.986   2.489   1.933
  440EMI    C03 8344   4.022   2.614   1.903
  440EMI    H07 8345   3.777   2.562   1.689
  440EMI    H09 8346   4.028   2.426   2.008
  440EMI    H08 8347   4.099   2.672   1.949
  440EMI    C05 8348   3.937   2.788   1.728
  440EMI    H0B 8349   3.838   2.813   1.693
  440EMI    H0C 8350   3.970   2.862   1.797
  440EMI    H0D 8351   4.004   2.784   1.644
  440EMI    N00 8352   3.934   2.657   1.794
  440EMI    C06 8353   3.804   2.327   1.838
  440EMI    H0F 8354   3.853   2.261   1.770
  440EMI    C0N 8355   3.803   2.265   1.979
  440EMI    H0O 8356   3.750   2.172   1.976
  440EMI    H0P 8357   3.903   2.248   2.011
  440EMI    H0Q 8358   3.754   2.331   2.047
  440EMI    N02 8359   3.876   2.456   1.842
  440EMI    H0E 8360   3.703   2.344   1.806
  441EMI    C01 8361   4.781   2.763   2.621
  441EMI    C04 8362   4.615   2.777   2.773
  441EMI    C03 8363   4.611   2.654   2.722
  441EMI    H07 8364   4.865   2.786   2.558
  441EMI    H09 8365   4.550   2.818   2.847
  441EMI    H08 8366   4.543   2.575   2.748
  441EMI    C05 8367   4.755   2.530   2.543
  441EMI    H0B 8368   4.860   2.531   2.522
  441EMI    H0C 8369   4.730   2.440   2.596
  441EMI    H0D 8370   4.701   2.532   2.451
  441EMI    N00 8371   4.720   2.647   2.624
  441EMI    C06 8372   4.768   2.985   2.729
  441EMI    H0F 8373   4.715   3.050   2.662
  441EMI    C0N 8374   4.736   3.024   2.874
  441EMI    H0O 8375   4.767   3.125   2.892
  441EMI    H0P 8376   4.631   3.015   2.892
  441EMI    H0Q 8377   4.789   2.959   2.941
  441EMI    N02 8378   4.726   2.846   2.705
  441EMI    H0E 8379   4.873   2.994   2.711
  442EMI    C01 8380   3.285   4.863   2.611
  442EMI    C04 8381   3.339   4.661   2.526
  442EMI    C03 8382   3.417   4.752   2.465
  442EMI    H07 8383   3.239   4.940   2.669
  442EMI    H09 8384   3.339   4.555   2.509
  442EMI    H08 8385   3.491   4.734   2.390
  442EMI    C05 8386   3.439   5.011   2.487
  442EMI    H0B 8387   3.435   5.076   2.572
  442EMI    H0C 8388   3.540   4.997   2.457
  442EMI    H0D 8389   3.383   5.055   2.407
  442EMI    N00 8390   3.380   4.881   2.523
  442EMI    C06 8391   3.154   4.677   2.708
  442EMI    H0F 8392   3.059   4.675   2.658
  442EMI    C0N 8393   3.195   4.534   2.746
  442EMI    H0O 8394   3.121   4.491   2.811
  442EMI    H0P 8395   3.203   4.474   2.658
  442EMI    H0Q 8396   3.290   4.536   2.797
  442EMI    N02 8397   3.255   4.736   2.620
  442EMI    H0E 8398   3.145   4.736   2.797
  443EMI    C01 8399   1.950   4.139   4.578
  443EMI    C04 8400   1.806   4.101   4.748
  443EMI    C03 8401   1.786   4.005   4.657
  443EMI    H07 8402   2.026   4.182   4.517
  443EMI    H09 8403   1.754   4.113   4.841
  443EMI    H08 8404   1.715   3.925   4.662
  443EMI    C05 8405   1.895   3.953   4.425
  443EMI    H0B 8406   1.996   3.959   4.391
  443EMI    H0C 8407   1.870   3.851   4.446
  443EMI    H0D 8408   1.829   3.992   4.350
  443EMI    N00 8409   1.880   4.032   4.548
  443EMI    C06 8410   1.968   4.305   4.761
  443EMI    H0F 8411   1.912   4.391   4.732
  443EMI    C0N 8412   1.959   4.288   4.914
  443EMI    H0O 8413   2.000   4.374   4.962
  443EMI    H0P 8414   1.856   4.276   4.942
  443EMI    H0Q 8415   2.015   4.201   4.943
  443EMI    N02 8416   1.912   4.186   4.695
  443EMI    H0E 8417   2.070   4.317   4.732
  444EMI    C01 8418   5.045   2.137   1.065
  444EMI    C04 8419   4.821   2.150   1.038
  444EMI    C03 8420   4.845   2.136   1.169
  444EMI    H07 8421   5.150   2.135   1.046
  444EMI    H09 8422   4.726   2.159   0.991
  444EMI    H08 8423   4.772   2.131   1.248
  444EMI    C05 8424   5.063   2.113   1.310
  444EMI    H0B 8425   5.159   2.160   1.302
  444EMI    H0C 8426   5.007   2.158   1.389
  444EMI    H0D 8427   5.077   2.009   1.331
  444EMI    N00 8428   4.990   2.128   1.183
  444EMI    C06 8429   4.976   2.163   0.829
  444EMI    H0F 8430   4.978   2.066   0.784
  444EMI    C0N 8431   4.864   2.248   0.766
  444EMI    H0O 8432   4.881   2.257   0.660
  444EMI    H0P 8433   4.770   2.199   0.782
  444EMI    H0Q 8434   4.862   2.345   0.810
  444EMI    N02 8435   4.952   2.150   0.973
  444EMI    H0E 8436   5.070   2.212   0.813
  445EMI    C01 8437   4.792   4.084   4.025
  445EMI    C04 8438   4.588   4.114   3.933
  445EMI    C03 8439   4.572   4.115   4.066
  445EMI    H07 8440   4.897   4.068   4.038
  445EMI    H09 8441   4.512   4.127   3.859
  445EMI    H08 8442   4.480   4.127   4.119
  445EMI    C05 8443   4.737   4.088   4.266
  445EMI    H0B 8444   4.837   4.124   4.283
  445EMI    H0C 8445   4.668   4.148   4.321
  445EMI    H0D 8446   4.731   3.986   4.299
  445EMI    N00 8447   4.706   4.095   4.123
  445EMI    C06 8448   4.797   4.087   3.778
  445EMI    H0F 8449   4.798   3.986   3.744
  445EMI    C0N 8450   4.718   4.173   3.677
  445EMI    H0O 8451   4.766   4.168   3.581
  445EMI    H0P 8452   4.618   4.137   3.669
  445EMI    H0Q 8453   4.717   4.275   3.711
  445EMI    N02 8454   4.732   4.094   3.910
  445EMI    H0E 8455   4.897   4.124   3.786
  446EMI    C01 8456   0.224   2.402   1.598
  446EMI    C04 8457   0.312   2.568   1.472
  446EMI    C03 8458   0.315   2.456   1.398
  446EMI    H07 8459   0.180   2.347   1.678
  446EMI    H09 8460   0.347   2.665   1.443
  446EMI    H08 8461   0.352   2.446   1.298
  446EMI    C05 8462   0.240   2.210   1.442
  446EMI    H0B 8463   0.155   2.169   1.493
  446EMI    H0C 8464   0.224   2.205   1.336
  446EMI    H0D 8465   0.327   2.155   1.468
  446EMI    N00 8466   0.257   2.351   1.482
  446EMI    C06 8467   0.230   2.620   1.714
  446EMI    H0F 8468   0.316   2.620   1.778
  446EMI    C0N 8469   0.204   2.762   1.663
  446EMI    H0O 8470   0.188   2.828   1.745
  446EMI    H0P 8471   0.290   2.796   1.607
  446EMI    H0Q 8472   0.118   2.762   1.599
  446EMI    N02 8473   0.253   2.529   1.601
  446EMI    H0E 8474   0.145   2.586   1.770
  447EMI    C01 8475   0.717   3.448   3.783
  447EMI    C04 8476   0.634   3.250   3.853
  447EMI    C03 8477   0.725   3.289   3.943
  447EMI    H07 8478   0.735   3.536   3.726
  447EMI    H09 8479   0.575   3.160   3.855
  447EMI    H08 8480   0.754   3.237   4.031
  447EMI    C05 8481   0.880   3.498   3.962
  447EMI    H0B 8482   0.863   3.602   3.940
  447EMI    H0C 8483   0.874   3.482   4.067
  447EMI    H0D 8484   0.976   3.469   3.926
  447EMI    N00 8485   0.777   3.417   3.895
  447EMI    C06 8486   0.545   3.355   3.631
  447EMI    H0F 8487   0.596   3.307   3.550
  447EMI    C0N 8488   0.414   3.280   3.661
  447EMI    H0O 8489   0.352   3.280   3.574
  447EMI    H0P 8490   0.437   3.179   3.689
  447EMI    H0Q 8491   0.363   3.328   3.742
  447EMI    N02 8492   0.631   3.355   3.750
  447EMI    H0E 8493   0.523   3.456   3.604
  448EMI    C01 8494   4.235   4.289   2.679
  448EMI    C04 8495   4.314   4.501   2.681
  448EMI    C03 8496   4.249   4.484   2.566
  448EMI    H07 8497   4.212   4.189   2.707
  448EMI    H09 8498   4.364   4.589   2.715
  448EMI    H08 8499   4.236   4.556   2.488
  448EMI    C05 8500   4.120   4.283   2.461
  448EMI    H0B 8501   4.055   4.209   2.503
  448EMI    H0C 8502   4.062   4.357   2.410
  448EMI    H0D 8503   4.186   4.236   2.391
  448EMI    N00 8504   4.198   4.346   2.568
  448EMI    C06 8505   4.361   4.344   2.885
  448EMI    H0F 8506   4.460   4.305   2.873
  448EMI    C0N 8507   4.366   4.473   2.968
  448EMI    H0O 8508   4.408   4.452   3.064
  448EMI    H0P 8509   4.427   4.546   2.918
  448EMI    H0Q 8510   4.267   4.512   2.980
  448EMI    N02 8511   4.304   4.373   2.753
  448EMI    H0E 8512   4.300   4.271   2.935
  449EMI    C01 8513   4.837   4.845   2.029
  449EMI    C04 8514   4.667   4.706   2.083
  449EMI    C03 8515   4.780   4.634   2.085
  449EMI    H07 8516   4.893   4.932   2.002
  449EMI    H09 8517   4.568   4.671   2.103
  449EMI    H08 8518   4.790   4.530   2.108
  449EMI    C05 8519   5.031   4.692   2.040
  449EMI    H0B 8520   5.090   4.778   2.065
  449EMI    H0C 8521   5.053   4.612   2.108
  449EMI    H0D 8522   5.053   4.661   1.940
  449EMI    N00 8523   4.888   4.727   2.050
  449EMI    C06 8524   4.616   4.957   2.031
  449EMI    H0F 8525   4.582   4.962   1.930
  449EMI    C0N 8526   4.496   4.939   2.125
  449EMI    H0O 8527   4.430   5.023   2.114
  449EMI    H0P 8528   4.444   4.849   2.101
  449EMI    H0Q 8529   4.530   4.934   2.227
  449EMI    N02 8530   4.707   4.842   2.046
  449EMI    H0E 8531   4.668   5.047   2.056
  450EMI    C01 8532   4.772   0.297   0.847
  450EMI    C04 8533   4.700   0.121   0.969
  450EMI    C03 8534   4.631   0.121   0.854
  450EMI    H07 8535   4.825   0.385   0.816
  450EMI    H09 8536   4.690   0.051   1.049
  450EMI    H08 8537   4.556   0.051   0.824
  450EMI    C05 8538   4.633   0.276   0.644
  450EMI    H0B 8539   4.713   0.324   0.591
  450EMI    H0C 8540   4.602   0.190   0.590
  450EMI    H0D 8541   4.551   0.344   0.654
  450EMI    N00 8542   4.680   0.236   0.777
  450EMI    C06 8543   4.886   0.276   1.066
  450EMI    H0F 8544   4.838   0.344   1.133
  450EMI    C0N 8545   4.933   0.152   1.143
  450EMI    H0O 8546   5.002   0.181   1.219
  450EMI    H0P 8547   4.849   0.104   1.188
  450EMI    H0Q 8548   4.980   0.084   1.076
  450EMI    N02 8549   4.790   0.236   0.962
  450EMI    H0E 8550   4.970   0.324   1.021
  451EMI    C01 8551   3.762   2.995   3.151
  451EMI    C04 8552   3.870   3.053   3.341
  451EMI    C03 8553   3.884   3.154   3.254
  451EMI    H07 8554   3.705   2.941   3.078
  451EMI    H09 8555   3.909   3.047   3.440
  451EMI    H08 8556   3.936   3.246   3.271
  451EMI    C05 8557   3.801   3.194   3.010
  451EMI    H0B 8558   3.709   3.171   2.961
  451EMI    H0C 8559   3.803   3.298   3.035
  451EMI    H0D 8560   3.883   3.172   2.945
  451EMI    N00 8561   3.813   3.114   3.133
  451EMI    C06 8562   3.750   2.821   3.327
  451EMI    H0F 8563   3.825   2.748   3.305
  451EMI    C0N 8564   3.734   2.834   3.479
  451EMI    H0O 8565   3.704   2.740   3.520
  451EMI    H0P 8566   3.827   2.864   3.523
  451EMI    H0Q 8567   3.659   2.907   3.501
  451EMI    N02 8568   3.791   2.951   3.271
  451EMI    H0E 8569   3.657   2.792   3.283
  452EMI    C01 8570   3.005   1.554   2.130
  452EMI    C04 8571   2.960   1.357   2.231
  452EMI    C03 8572   3.057   1.417   2.301
  452EMI    H07 8573   3.003   1.637   2.062
  452EMI    H09 8574   2.915   1.262   2.251
  452EMI    H08 8575   3.106   1.379   2.389
  452EMI    C05 8576   3.183   1.644   2.275
  452EMI    H0B 8577   3.150   1.741   2.246
  452EMI    H0C 8578   3.196   1.640   2.381
  452EMI    H0D 8579   3.277   1.623   2.227
  452EMI    N00 8580   3.084   1.544   2.233
  452EMI    C06 8581   2.827   1.425   2.017
  452EMI    H0F 8582   2.872   1.374   1.934
  452EMI    C0N 8583   2.713   1.338   2.075
  452EMI    H0O 8584   2.639   1.321   1.999
  452EMI    H0P 8585   2.753   1.245   2.108
  452EMI    H0Q 8586   2.668   1.389   2.157
  452EMI    N02 8587   2.928   1.448   2.120
  452EMI    H0E 8588   2.787   1.518   1.984
  453EMI    C01 8589   1.445   2.008   4.495
  453EMI    C04 8590   1.494   2.217   4.425
  453EMI    C03 8591   1.363   2.199   4.405
  453EMI    H07 8592   1.453   1.909   4.534
  453EMI    H09 8593   1.551   2.305   4.402
  453EMI    H08 8594   1.294   2.269   4.363
  453EMI    C05 8595   1.202   1.998   4.449
  453EMI    H0B 8596   1.195   1.928   4.529
  453EMI    H0C 8597   1.126   2.072   4.459
  453EMI    H0D 8598   1.189   1.946   4.356
  453EMI    N00 8599   1.334   2.063   4.451
  453EMI    C06 8600   1.683   2.066   4.522
  453EMI    H0F 8601   1.736   2.024   4.439
  453EMI    C0N 8602   1.751   2.198   4.564
  453EMI    H0O 8603   1.852   2.179   4.593
  453EMI    H0P 8604   1.749   2.267   4.482
  453EMI    H0Q 8605   1.698   2.240   4.647
  453EMI    N02 8606   1.544   2.092   4.483
  453EMI    H0E 8607   1.685   1.997   4.604
  454EMI    C01 8608   1.036   3.041   3.302
  454EMI    C04 8609   0.834   3.121   3.239
  454EMI    C03 8610   0.814   3.000   3.294
  454EMI    H07 8611   1.141   3.031   3.319
  454EMI    H09 8612   0.760   3.186   3.199
  454EMI    H08 8613   0.720   2.950   3.306
  454EMI    C05 8614   0.973   2.822   3.398
  454EMI    H0B 8615   1.060   2.831   3.460
  454EMI    H0C 8616   0.889   2.793   3.457
  454EMI    H0D 8617   0.991   2.747   3.323
  454EMI    N00 8618   0.946   2.951   3.333
  454EMI    C06 8619   1.048   3.264   3.197
  454EMI    H0F 8620   1.076   3.251   3.095
  454EMI    C0N 8621   0.954   3.386   3.209
  454EMI    H0O 8622   1.005   3.474   3.174
  454EMI    H0P 8623   0.866   3.369   3.150
  454EMI    H0Q 8624   0.926   3.400   3.312
  454EMI    N02 8625   0.979   3.144   3.246
  454EMI    H0E 8626   1.136   3.281   3.256
  455EMI    C01 8627   3.936   2.669   1.447
  455EMI    C04 8628   3.752   2.793   1.485
  455EMI    C03 8629   3.716   2.665   1.495
  455EMI    H07 8630   4.037   2.639   1.425
  455EMI    H09 8631   3.689   2.879   1.497
  455EMI    H08 8632   3.618   2.627   1.517
  455EMI    C05 8633   3.846   2.440   1.471
  455EMI    H0B 8634   3.945   2.410   1.502
  455EMI    H0C 8635   3.774   2.400   1.540
  455EMI    H0D 8636   3.827   2.402   1.373
  455EMI    N00 8637   3.837   2.586   1.470
  455EMI    C06 8638   3.978   2.912   1.433
  455EMI    H0F 8639   3.977   2.939   1.329
  455EMI    C0N 8640   3.923   3.028   1.517
  455EMI    H0O 8641   3.983   3.115   1.502
  455EMI    H0P 8642   3.822   3.050   1.487
  455EMI    H0Q 8643   3.924   3.002   1.620
  455EMI    N02 8644   3.895   2.793   1.453
  455EMI    H0E 8645   4.079   2.891   1.463
  456EMI    C01 8646   3.161   2.819   1.683
  456EMI    C04 8647   2.973   2.837   1.806
  456EMI    C03 8648   2.981   2.947   1.730
  456EMI    H07 8649   3.253   2.783   1.640
  456EMI    H09 8650   2.896   2.813   1.876
  456EMI    H08 8651   2.913   3.028   1.727
  456EMI    C05 8652   3.155   3.029   1.554
  456EMI    H0B 8653   3.210   2.978   1.477
  456EMI    H0C 8654   3.073   3.082   1.509
  456EMI    H0D 8655   3.219   3.099   1.603
  456EMI    N00 8656   3.104   2.932   1.651
  456EMI    C06 8657   3.124   2.625   1.832
  456EMI    H0F 8658   3.184   2.640   1.920
  456EMI    C0N 8659   2.994   2.552   1.871
  456EMI    H0O 8660   3.019   2.457   1.914
  456EMI    H0P 8661   2.940   2.611   1.943
  456EMI    H0Q 8662   2.934   2.537   1.784
  456EMI    N02 8663   3.091   2.756   1.773
  456EMI    H0E 8664   3.178   2.567   1.761
  457EMI    C01 8665   2.730   4.558   0.738
  457EMI    C04 8666   2.908   4.651   0.840
  457EMI    C03 8667   2.950   4.538   0.784
  457EMI    H07 8668   2.631   4.540   0.701
  457EMI    H09 8669   2.967   4.720   0.897
  457EMI    H08 8670   3.049   4.497   0.786
  457EMI    C05 8671   2.830   4.354   0.642
  457EMI    H0B 8672   2.756   4.359   0.566
  457EMI    H0C 8673   2.926   4.337   0.598
  457EMI    H0D 8674   2.807   4.273   0.708
  457EMI    N00 8675   2.832   4.480   0.718
  457EMI    C06 8676   2.677   4.771   0.851
  457EMI    H0F 8677   2.633   4.748   0.946
  457EMI    C0N 8678   2.758   4.902   0.863
  457EMI    H0O 8679   2.693   4.981   0.894
  457EMI    H0P 8680   2.835   4.888   0.936
  457EMI    H0Q 8681   2.802   4.925   0.769
  457EMI    N02 8682   2.765   4.662   0.809
  457EMI    H0E 8683   2.599   4.784   0.778
  458EMI    C01 8684   2.151   3.333   3.552
  458EMI    C04 8685   2.286   3.503   3.613
  458EMI    C03 8686   2.162   3.551   3.610
  458EMI    H07 8687   2.114   3.237   3.522
  458EMI    H09 8688   2.376   3.556   3.638
  458EMI    H08 8689   2.131   3.651   3.632
  458EMI    C05 8690   1.930   3.445   3.552
  458EMI    H0B 8691   1.888   3.349   3.575
  458EMI    H0C 8692   1.889   3.518   3.619
  458EMI    H0D 8693   1.907   3.471   3.451
  458EMI    N00 8694   2.076   3.439   3.570
  458EMI    C06 8695   2.389   3.267   3.565
  458EMI    H0F 8696   2.428   3.270   3.466
  458EMI    C0N 8697   2.498   3.308   3.665
  458EMI    H0O 8698   2.580   3.239   3.658
  458EMI    H0P 8699   2.533   3.406   3.643
  458EMI    H0Q 8700   2.459   3.305   3.765
  458EMI    N02 8701   2.276   3.362   3.575
  458EMI    H0E 8702   2.354   3.169   3.588
  459EMI    C01 8703   1.421   1.787   2.080
  459EMI    C04 8704   1.480   1.659   2.256
  459EMI    C03 8705   1.576   1.750   2.240
  459EMI    H07 8706   1.368   1.829   1.997
  459EMI    H09 8707   1.476   1.582   2.331
  459EMI    H08 8708   1.665   1.762   2.299
  459EMI    C05 8709   1.611   1.946   2.070
  459EMI    H0B 8710   1.543   2.016   2.027
  459EMI    H0C 8711   1.667   1.993   2.149
  459EMI    H0D 8712   1.678   1.911   1.995
  459EMI    N00 8713   1.536   1.832   2.125
  459EMI    C06 8714   1.257   1.610   2.130
  459EMI    H0F 8715   1.276   1.529   2.063
  459EMI    C0N 8716   1.207   1.554   2.264
  459EMI    H0O 8717   1.117   1.499   2.249
  459EMI    H0P 8718   1.281   1.489   2.306
  459EMI    H0Q 8719   1.188   1.635   2.332
  459EMI    N02 8720   1.381   1.685   2.151
  459EMI    H0E 8721   1.183   1.674   2.088
  460EMI    C01 8722   2.960   4.667   4.822
  460EMI    C04 8723   2.915   4.617   5.038
  460EMI    C03 8724   3.037   4.570   5.011
  460EMI    H07 8725   2.952   4.703   4.722
  460EMI    H09 8726   2.862   4.611   5.131
  460EMI    H08 8727   3.102   4.518   5.078
  460EMI    C05 8728   3.186   4.571   4.796
  460EMI    H0B 8729   3.203   4.645   4.721
  460EMI    H0C 8730   3.269   4.568   4.864
  460EMI    H0D 8731   3.175   4.475   4.750
  460EMI    N00 8732   3.063   4.603   4.870
  460EMI    C06 8733   2.737   4.746   4.895
  460EMI    H0F 8734   2.665   4.674   4.862
  460EMI    C0N 8735   2.691   4.807   5.029
  460EMI    H0O 8736   2.597   4.855   5.016
  460EMI    H0P 8737   2.682   4.729   5.102
  460EMI    H0Q 8738   2.764   4.878   5.062
  460EMI    N02 8739   2.867   4.680   4.914
  460EMI    H0E 8740   2.746   4.823   4.822
  461EMI    C01 8741   3.535   2.968   0.697
  461EMI    C04 8742   3.696   2.946   0.540
  461EMI    C03 8743   3.754   2.996   0.649
  461EMI    H07 8744   3.441   2.967   0.747
  461EMI    H09 8745   3.743   2.922   0.447
  461EMI    H08 8746   3.857   3.022   0.661
  461EMI    C05 8747   3.664   3.062   0.885
  461EMI    H0B 8748   3.592   3.016   0.950
  461EMI    H0C 8749   3.763   3.040   0.920
  461EMI    H0D 8750   3.649   3.168   0.885
  461EMI    N00 8751   3.647   3.010   0.749
  461EMI    C06 8752   3.451   2.875   0.484
  461EMI    H0F 8753   3.407   2.955   0.429
  461EMI    C0N 8754   3.515   2.775   0.386
  461EMI    H0O 8755   3.440   2.736   0.320
  461EMI    H0P 8756   3.590   2.824   0.328
  461EMI    H0Q 8757   3.559   2.694   0.441
  461EMI    N02 8758   3.554   2.928   0.574
  461EMI    H0E 8759   3.376   2.825   0.541
  462EMI    C01 8760   1.122   1.278   0.228
  462EMI    C04 8761   1.155   1.066   0.158
  462EMI    C03 8762   1.275   1.120   0.179
  462EMI    H07 8763   1.076   1.370   0.258
  462EMI    H09 8764   1.133   0.967   0.124
  462EMI    H08 8765   1.370   1.072   0.165
  462EMI    C05 8766   1.355   1.355   0.260
  462EMI    H0B 8767   1.317   1.422   0.334
  462EMI    H0C 8768   1.441   1.304   0.298
  462EMI    H0D 8769   1.382   1.411   0.173
  462EMI    N00 8770   1.251   1.257   0.224
  462EMI    C06 8771   0.911   1.158   0.183
  462EMI    H0F 8772   0.878   1.186   0.085
  462EMI    C0N 8773   0.872   1.011   0.209
  462EMI    H0O 8774   0.765   1.001   0.203
  462EMI    H0P 8775   0.917   0.948   0.136
  462EMI    H0Q 8776   0.905   0.982   0.307
  462EMI    N02 8777   1.058   1.171   0.191
  462EMI    H0E 8778   0.866   1.221   0.256
  463EMI    C01 8779   1.629   2.835   4.611
  463EMI    C04 8780   1.803   2.706   4.674
  463EMI    C03 8781   1.845   2.833   4.676
  463EMI    H07 8782   1.532   2.868   4.579
  463EMI    H09 8783   1.860   2.619   4.698
  463EMI    H08 8784   1.943   2.869   4.702
  463EMI    C05 8785   1.729   3.061   4.623
  463EMI    H0B 8786   1.630   3.098   4.643
  463EMI    H0C 8787   1.798   3.103   4.692
  463EMI    H0D 8788   1.757   3.089   4.523
  463EMI    N00 8789   1.730   2.915   4.635
  463EMI    C06 8790   1.575   2.594   4.615
  463EMI    H0F 8791   1.582   2.558   4.514
  463EMI    C0N 8792   1.618   2.483   4.712
  463EMI    H0O 8793   1.554   2.398   4.700
  463EMI    H0P 8794   1.719   2.455   4.692
  463EMI    H0Q 8795   1.610   2.519   4.813
  463EMI    N02 8796   1.663   2.711   4.631
  463EMI    H0E 8797   1.474   2.623   4.635
  464EMI    C01 8798   3.939   4.143   1.403
  464EMI    C04 8799   3.894   4.299   1.561
  464EMI    C03 8800   3.820   4.192   1.589
  464EMI    H07 8801   3.980   4.092   1.318
  464EMI    H09 8802   3.898   4.391   1.615
  464EMI    H08 8803   3.751   4.180   1.670
  464EMI    C05 8804   3.792   3.958   1.476
  464EMI    H0B 8805   3.862   3.891   1.430
  464EMI    H0C 8806   3.767   3.923   1.573
  464EMI    H0D 8807   3.703   3.962   1.416
  464EMI    N00 8808   3.851   4.092   1.485
  464EMI    C06 8809   4.067   4.352   1.372
  464EMI    H0F 8810   4.016   4.410   1.298
  464EMI    C0N 8811   4.132   4.446   1.474
  464EMI    H0O 8812   4.202   4.510   1.425
  464EMI    H0P 8813   4.057   4.506   1.522
  464EMI    H0Q 8814   4.183   4.388   1.549
  464EMI    N02 8815   3.971   4.265   1.440
  464EMI    H0E 8816   4.142   4.293   1.325
  465EMI    C01 8817   3.360   2.753   1.030
  465EMI    C04 8818   3.298   2.935   0.912
  465EMI    C03 8819   3.290   2.830   0.830
  465EMI    H07 8820   3.393   2.689   1.109
  465EMI    H09 8821   3.276   3.037   0.888
  465EMI    H08 8822   3.259   2.830   0.728
  465EMI    C05 8823   3.336   2.575   0.861
  465EMI    H0B 8824   3.317   2.508   0.942
  465EMI    H0C 8825   3.263   2.561   0.785
  465EMI    H0D 8826   3.433   2.555   0.821
  465EMI    N00 8827   3.330   2.714   0.910
  465EMI    C06 8828   3.369   2.962   1.162
  465EMI    H0F 8829   3.471   2.996   1.163
  465EMI    C0N 8830   3.275   3.084   1.163
  465EMI    H0O 8831   3.293   3.142   1.251
  465EMI    H0P 8832   3.293   3.144   1.077
  465EMI    H0Q 8833   3.173   3.051   1.162
  465EMI    N02 8834   3.345   2.883   1.041
  465EMI    H0E 8835   3.350   2.902   1.249
  466EMI    C01 8836   1.313   2.499   0.861
  466EMI    C04 8837   1.307   2.375   1.049
  466EMI    C03 8838   1.258   2.299   0.951
  466EMI    H07 8839   1.328   2.579   0.791
  466EMI    H09 8840   1.319   2.348   1.152
  466EMI    H08 8841   1.223   2.199   0.959
  466EMI    C05 8842   1.219   2.340   0.696
  466EMI    H0B 8843   1.277   2.391   0.622
  466EMI    H0C 8844   1.233   2.234   0.686
  466EMI    H0D 8845   1.116   2.364   0.683
  466EMI    N00 8846   1.263   2.382   0.830
  466EMI    C06 8847   1.400   2.620   1.058
  466EMI    H0F 8848   1.321   2.682   1.095
  466EMI    C0N 8849   1.485   2.570   1.176
  466EMI    H0O 8850   1.527   2.655   1.227
  466EMI    H0P 8851   1.424   2.515   1.244
  466EMI    H0Q 8852   1.564   2.508   1.139
  466EMI    N02 8853   1.342   2.504   0.988
  466EMI    H0E 8854   1.461   2.675   0.990
  467EMI    C01 8855   0.428   2.046   0.953
  467EMI    C04 8856   0.578   2.215   0.946
  467EMI    C03 8857   0.464   2.265   0.993
  467EMI    H07 8858   0.382   1.950   0.944
  467EMI    H09 8859   0.670   2.267   0.931
  467EMI    H08 8860   0.445   2.367   1.022
  467EMI    C05 8861   0.228   2.162   1.041
  467EMI    H0B 8862   0.198   2.068   1.082
  467EMI    H0C 8863   0.219   2.238   1.115
  467EMI    H0D 8864   0.166   2.186   0.957
  467EMI    N00 8865   0.368   2.154   0.996
  467EMI    C06 8866   0.650   1.976   0.869
  467EMI    H0F 8867   0.645   1.974   0.762
  467EMI    C0N 8868   0.791   2.017   0.913
  467EMI    H0O 8869   0.862   1.946   0.875
  467EMI    H0P 8870   0.814   2.114   0.875
  467EMI    H0Q 8871   0.796   2.018   1.020
  467EMI    N02 8872   0.552   2.072   0.921
  467EMI    H0E 8873   0.627   1.878   0.907
  468EMI    C01 8874   1.188   4.982   1.449
  468EMI    C04 8875   1.292   4.877   1.278
  468EMI    C03 8876   1.161   4.858   1.262
  468EMI    H07 8877   1.169   5.038   1.538
  468EMI    H09 8878   1.371   4.841   1.215
  468EMI    H08 8879   1.113   4.804   1.183
  468EMI    C05 8880   0.951   4.933   1.398
  468EMI    H0B 8881   0.927   5.025   1.448
  468EMI    H0C 8882   0.899   4.929   1.304
  468EMI    H0D 8883   0.921   4.850   1.459
  468EMI    N00 8884   1.096   4.927   1.374
  468EMI    C06 8885   1.434   5.003   1.458
  468EMI    H0F 8886   1.470   4.929   1.527
  468EMI    C0N 8887   1.537   5.023   1.345
  468EMI    H0O 8888   1.630   5.056   1.388
  468EMI    H0P 8889   1.553   4.930   1.294
  468EMI    H0Q 8890   1.501   5.097   1.277
  468EMI    N02 8891   1.307   4.957   1.400
  468EMI    H0E 8892   1.419   5.095   1.509
  469EMI    C01 8893   1.969   0.966   4.854
  469EMI    C04 8894   2.030   1.068   4.662
  469EMI    C03 8895   2.138   1.005   4.709
  469EMI    H07 8896   1.912   0.932   4.937
  469EMI    H09 8897   2.024   1.127   4.572
  469EMI    H08 8898   2.235   1.002   4.665
  469EMI    C05 8899   2.181   0.858   4.921
  469EMI    H0B 8900   2.122   0.784   4.970
  469EMI    H0C 8901   2.256   0.810   4.862
  469EMI    H0D 8902   2.228   0.921   4.994
  469EMI    N00 8903   2.096   0.940   4.833
  469EMI    C06 8904   1.784   1.091   4.747
  469EMI    H0F 8905   1.777   1.186   4.796
  469EMI    C0N 8906   1.747   1.108   4.599
  469EMI    H0O 8907   1.646   1.144   4.591
  469EMI    H0P 8908   1.813   1.177   4.552
  469EMI    H0Q 8909   1.754   1.013   4.549
  469EMI    N02 8910   1.922   1.042   4.758
  469EMI    H0E 8911   1.718   1.021   4.793
  470EMI    C01 8912   2.270   4.491   2.588
  470EMI    C04 8913   2.468   4.482   2.479
  470EMI    C03 8914   2.442   4.611   2.502
  470EMI    H07 8915   2.179   4.464   2.636
  470EMI    H09 8916   2.554   4.441   2.430
  470EMI    H08 8917   2.502   4.695   2.474
  470EMI    C05 8918   2.243   4.735   2.618
  470EMI    H0B 8919   2.186   4.712   2.705
  470EMI    H0C 8920   2.315   4.811   2.641
  470EMI    H0D 8921   2.178   4.770   2.540
  470EMI    N00 8922   2.313   4.614   2.572
  470EMI    C06 8923   2.342   4.260   2.535
  470EMI    H0F 8924   2.290   4.230   2.446
  470EMI    C0N 8925   2.481   4.195   2.538
  470EMI    H0O 8926   2.471   4.089   2.537
  470EMI    H0P 8927   2.537   4.226   2.452
  470EMI    H0Q 8928   2.533   4.225   2.626
  470EMI    N02 8929   2.356   4.407   2.536
  470EMI    H0E 8930   2.286   4.229   2.621
  471EMI    C01 8931   3.799   3.468   4.911
  471EMI    C04 8932   3.581   3.418   4.883
  471EMI    C03 8933   3.639   3.311   4.938
  471EMI    H07 8934   3.893   3.520   4.911
  471EMI    H09 8935   3.478   3.428   4.856
  471EMI    H08 8936   3.593   3.218   4.965
  471EMI    C05 8937   3.884   3.259   5.012
  471EMI    H0B 8938   3.959   3.320   5.060
  471EMI    H0C 8939   3.840   3.193   5.084
  471EMI    H0D 8940   3.930   3.202   4.934
  471EMI    N00 8941   3.781   3.346   4.955
  471EMI    C06 8942   3.669   3.652   4.810
  471EMI    H0F 8943   3.685   3.648   4.704
  471EMI    C0N 8944   3.526   3.702   4.838
  471EMI    H0O 8945   3.513   3.800   4.797
  471EMI    H0P 8946   3.455   3.635   4.794
  471EMI    H0Q 8947   3.510   3.706   4.944
  471EMI    N02 8948   3.686   3.518   4.867
  471EMI    H0E 8949   3.739   3.719   4.854
  472EMI    C01 8950   4.884   3.096   1.405
  472EMI    C04 8951   4.948   2.903   1.503
  472EMI    C03 8952   5.052   2.987   1.508
  472EMI    H07 8953   4.826   3.171   1.354
  472EMI    H09 8954   4.944   2.803   1.540
  472EMI    H08 8955   5.148   2.968   1.551
  472EMI    C05 8956   5.088   3.232   1.427
  472EMI    H0B 8957   5.025   3.318   1.427
  472EMI    H0C 8958   5.159   3.240   1.507
  472EMI    H0D 8959   5.141   3.227   1.333
  472EMI    N00 8960   5.007   3.111   1.444
  472EMI    C06 8961   4.706   2.924   1.407
  472EMI    H0F 8962   4.706   2.876   1.311
  472EMI    C0N 8963   4.667   2.821   1.514
  472EMI    H0O 8964   4.570   2.783   1.494
  472EMI    H0P 8965   4.738   2.741   1.514
  472EMI    H0Q 8966   4.667   2.868   1.610
  472EMI    N02 8967   4.841   2.976   1.435
  472EMI    H0E 8968   4.636   3.004   1.407
  473EMI    C01 8969   4.094   0.385   1.023
  473EMI    C04 8970   4.036   0.315   0.817
  473EMI    C03 8971   4.145   0.392   0.803
  473EMI    H07 8972   4.096   0.401   1.129
  473EMI    H09 8973   3.982   0.265   0.739
  473EMI    H08 8974   4.196   0.416   0.712
  473EMI    C05 8975   4.294   0.522   0.973
  473EMI    H0B 8976   4.328   0.498   1.072
  473EMI    H0C 8977   4.373   0.507   0.903
  473EMI    H0D 8978   4.263   0.625   0.971
  473EMI    N00 8979   4.180   0.436   0.939
  473EMI    C06 8980   3.894   0.241   1.022
  473EMI    H0F 8981   3.808   0.304   1.026
  473EMI    C0N 8982   3.861   0.115   0.939
  473EMI    H0O 8983   3.779   0.063   0.985
  473EMI    H0P 8984   3.833   0.144   0.840
  473EMI    H0Q 8985   3.946   0.051   0.935
  473EMI    N02 8986   4.006   0.313   0.960
  473EMI    H0E 8987   3.921   0.212   1.122
  474EMI    C01 8988   4.882   0.778   4.900
  474EMI    C04 8989   4.847   0.997   4.857
  474EMI    C03 8990   4.947   0.957   4.778
  474EMI    H07 8991   4.875   0.680   4.940
  474EMI    H09 8992   4.805   1.095   4.862
  474EMI    H08 8993   5.001   1.016   4.707
  474EMI    C05 8994   5.068   0.728   4.745
  474EMI    H0B 8995   5.032   0.627   4.742
  474EMI    H0C 8996   5.087   0.761   4.645
  474EMI    H0D 8997   5.159   0.731   4.801
  474EMI    N00 8998   4.968   0.815   4.808
  474EMI    C06 8999   4.700   0.876   5.035
  474EMI    H0F 9000   4.740   0.900   5.131
  474EMI    C0N 9001   4.591   0.978   4.998
  474EMI    H0O 9002   4.513   0.976   5.071
  474EMI    H0P 9003   4.634   1.076   4.995
  474EMI    H0Q 9004   4.551   0.954   4.902
  474EMI    N02 9005   4.807   0.879   4.934
  474EMI    H0E 9006   4.657   0.778   5.038
  475EMI    C01 9007   2.513   4.575   4.428
  475EMI    C04 9008   2.317   4.541   4.534
  475EMI    C03 9009   2.394   4.614   4.616
  475EMI    H07 9010   2.591   4.574   4.355
  475EMI    H09 9011   2.218   4.507   4.554
  475EMI    H08 9012   2.369   4.650   4.713
  475EMI    C05 9013   2.636   4.710   4.594
  475EMI    H0B 9014   2.689   4.754   4.512
  475EMI    H0C 9015   2.602   4.788   4.660
  475EMI    H0D 9016   2.701   4.644   4.647
  475EMI    N00 9017   2.520   4.635   4.544
  475EMI    C06 9018   2.353   4.441   4.296
  475EMI    H0F 9019   2.379   4.338   4.308
  475EMI    C0N 9020   2.200   4.453   4.281
  475EMI    H0O 9021   2.168   4.398   4.195
  475EMI    H0P 9022   2.152   4.414   4.368
  475EMI    H0Q 9023   2.173   4.556   4.268
  475EMI    N02 9024   2.397   4.517   4.414
  475EMI    H0E 9025   2.400   4.480   4.208
  476EMI    C01 9026   0.539   1.682   5.034
  476EMI    C04 9027   0.332   1.603   4.993
  476EMI    C03 9028   0.324   1.737   4.993
  476EMI    H07 9029   0.644   1.688   5.055
  476EMI    H09 9030   0.252   1.534   4.977
  476EMI    H08 9031   0.237   1.796   4.977
  476EMI    C05 9032   0.500   1.926   5.029
  476EMI    H0B 9033   0.602   1.936   4.998
  476EMI    H0C 9034   0.437   1.985   4.966
  476EMI    H0D 9035   0.491   1.959   5.131
  476EMI    N00 9036   0.460   1.785   5.020
  476EMI    C06 9037   0.528   1.435   5.030
  476EMI    H0F 9038   0.523   1.401   5.131
  476EMI    C0N 9039   0.448   1.340   4.939
  476EMI    H0O 9040   0.489   1.241   4.946
  476EMI    H0P 9041   0.346   1.338   4.971
  476EMI    H0Q 9042   0.454   1.374   4.838
  476EMI    N02 9043   0.472   1.571   5.020
  476EMI    H0E 9044   0.631   1.437   4.998
  477EMI    C01 9045   3.658   0.937   3.125
  477EMI    C04 9046   3.588   1.148   3.165
  477EMI    C03 9047   3.480   1.070   3.170
  477EMI    H07 9048   3.719   0.852   3.105
  477EMI    H09 9049   3.591   1.254   3.178
  477EMI    H08 9050   3.379   1.100   3.189
  477EMI    C05 9051   3.445   0.813   3.140
  477EMI    H0B 9052   3.502   0.728   3.171
  477EMI    H0C 9053   3.361   0.825   3.205
  477EMI    H0D 9054   3.410   0.797   3.040
  477EMI    N00 9055   3.528   0.933   3.144
  477EMI    C06 9056   3.841   1.102   3.121
  477EMI    H0F 9057   3.861   1.126   3.018
  477EMI    C0N 9058   3.867   1.227   3.208
  477EMI    H0O 9059   3.969   1.258   3.197
  477EMI    H0P 9060   3.802   1.306   3.177
  477EMI    H0Q 9061   3.848   1.203   3.310
  477EMI    N02 9062   3.701   1.060   3.136
  477EMI    H0E 9063   3.906   1.023   3.152
  478EMI    C01 9064   2.787   2.593   2.137
  478EMI    C04 9065   2.745   2.793   2.040
  478EMI    C03 9066   2.855   2.807   2.114
  478EMI    H07 9067   2.780   2.491   2.167
  478EMI    H09 9068   2.697   2.868   1.981
  478EMI    H08 9069   2.913   2.896   2.126
  478EMI    C05 9070   2.991   2.644   2.267
  478EMI    H0B 9071   3.017   2.541   2.256
  478EMI    H0C 9072   3.075   2.705   2.242
  478EMI    H0D 9073   2.961   2.663   2.368
  478EMI    N00 9074   2.880   2.676   2.176
  478EMI    C06 9075   2.585   2.591   1.994
  478EMI    H0F 9076   2.500   2.602   2.057
  478EMI    C0N 9077   2.558   2.659   1.858
  478EMI    H0O 9078   2.472   2.614   1.812
  478EMI    H0P 9079   2.539   2.763   1.874
  478EMI    H0Q 9080   2.643   2.648   1.795
  478EMI    N02 9081   2.703   2.653   2.057
  478EMI    H0E 9082   2.604   2.487   1.978
  479EMI    C01 9083   1.566   0.646   0.849
  479EMI    C04 9084   1.633   0.558   1.045
  479EMI    C03 9085   1.614   0.688   1.065
  479EMI    H07 9086   1.537   0.658   0.746
  479EMI    H09 9087   1.665   0.485   1.117
  479EMI    H08 9088   1.628   0.742   1.157
  479EMI    C05 9089   1.538   0.884   0.910
  479EMI    H0B 9090   1.464   0.890   0.833
  479EMI    H0C 9091   1.500   0.929   1.000
  479EMI    H0D 9092   1.626   0.936   0.879
  479EMI    N00 9093   1.571   0.743   0.936
  479EMI    C06 9094   1.608   0.403   0.836
  479EMI    H0F 9095   1.706   0.389   0.795
  479EMI    C0N 9096   1.579   0.291   0.937
  479EMI    H0O 9097   1.584   0.196   0.888
  479EMI    H0P 9098   1.651   0.294   1.016
  479EMI    H0Q 9099   1.481   0.305   0.978
  479EMI    N02 9100   1.601   0.533   0.904
  479EMI    H0E 9101   1.535   0.400   0.757
  480EMI    C01 9102   2.988   1.805   1.228
  480EMI    C04 9103   3.027   1.988   1.102
  480EMI    C03 9104   2.967   2.029   1.214
  480EMI    H07 9105   2.983   1.704   1.263
  480EMI    H09 9106   3.059   2.048   1.020
  480EMI    H08 9107   2.942   2.130   1.240
  480EMI    C05 9108   2.878   1.905   1.426
  480EMI    H0B 9109   2.918   1.823   1.482
  480EMI    H0C 9110   2.898   1.997   1.477
  480EMI    H0D 9111   2.773   1.893   1.414
  480EMI    N00 9112   2.943   1.909   1.294
  480EMI    C06 9113   3.099   1.752   1.014
  480EMI    H0F 9114   3.024   1.719   0.946
  480EMI    C0N 9115   3.209   1.828   0.937
  480EMI    H0O 9116   3.253   1.763   0.864
  480EMI    H0P 9117   3.166   1.913   0.887
  480EMI    H0Q 9118   3.284   1.861   1.005
  480EMI    N02 9119   3.039   1.842   1.114
  480EMI    H0E 9120   3.142   1.668   1.063
  481EMI    C01 9121   4.686   4.024   3.192
  481EMI    C04 9122   4.631   3.855   3.332
  481EMI    C03 9123   4.764   3.871   3.339
  481EMI    H07 9124   4.680   4.103   3.121
  481EMI    H09 9125   4.572   3.784   3.385
  481EMI    H08 9126   4.832   3.815   3.399
  481EMI    C05 9127   4.931   4.034   3.221
  481EMI    H0B 9128   4.924   4.138   3.197
  481EMI    H0C 9129   4.991   4.022   3.309
  481EMI    H0D 9130   4.975   3.980   3.140
  481EMI    N00 9131   4.796   3.981   3.247
  481EMI    C06 9132   4.443   3.975   3.196
  481EMI    H0F 9133   4.421   3.914   3.111
  481EMI    C0N 9134   4.351   3.937   3.313
  481EMI    H0O 9135   4.249   3.952   3.284
  481EMI    H0P 9136   4.366   3.834   3.338
  481EMI    H0Q 9137   4.373   3.998   3.398
  481EMI    N02 9138   4.583   3.955   3.236
  481EMI    H0E 9139   4.428   4.078   3.171
  482EMI    C01 9140   2.581   4.939   3.051
  482EMI    C04 9141   2.784   4.842   3.034
  482EMI    C03 9142   2.711   4.798   2.931
  482EMI    H07 9143   2.498   4.998   3.084
  482EMI    H09 9144   2.885   4.816   3.057
  482EMI    H08 9145   2.742   4.730   2.855
  482EMI    C05 9146   2.466   4.845   2.853
  482EMI    H0B 9147   2.407   4.934   2.851
  482EMI    H0C 9148   2.503   4.824   2.754
  482EMI    H0D 9149   2.406   4.763   2.886
  482EMI    N00 9150   2.580   4.863   2.944
  482EMI    C06 9151   2.735   5.005   3.232
  482EMI    H0F 9152   2.711   4.945   3.318
  482EMI    C0N 9153   2.886   5.034   3.230
  482EMI    H0O 9154   2.913   5.087   3.319
  482EMI    H0P 9155   2.940   4.942   3.225
  482EMI    H0Q 9156   2.909   5.094   3.145
  482EMI    N02 9157   2.697   4.932   3.110
  482EMI    H0E 9158   2.680   5.097   3.237
  483EMI    C01 9159   4.499   1.085   3.248
  483EMI    C04 9160   4.335   0.953   3.329
  483EMI    C03 9161   4.279   1.070   3.296
  483EMI    H07 9162   4.595   1.121   3.216
  483EMI    H09 9163   4.285   0.868   3.370
  483EMI    H08 9164   4.176   1.098   3.305
  483EMI    C05 9165   4.375   1.291   3.194
  483EMI    H0B 9166   4.448   1.310   3.119
  483EMI    H0C 9167   4.277   1.305   3.154
  483EMI    H0D 9168   4.390   1.360   3.276
  483EMI    N00 9169   4.388   1.153   3.243
  483EMI    C06 9170   4.579   0.861   3.316
  483EMI    H0F 9171   4.621   0.870   3.414
  483EMI    C0N 9172   4.513   0.722   3.302
  483EMI    H0O 9173   4.586   0.646   3.316
  483EMI    H0P 9174   4.436   0.711   3.375
  483EMI    H0Q 9175   4.470   0.713   3.204
  483EMI    N02 9176   4.477   0.965   3.296
  483EMI    H0E 9177   4.655   0.871   3.242
  484EMI    C01 9178   3.296   4.765   2.121
  484EMI    C04 9179   3.343   4.686   1.915
  484EMI    C03 9180   3.437   4.776   1.945
  484EMI    H07 9181   3.250   4.782   2.216
  484EMI    H09 9182   3.335   4.629   1.825
  484EMI    H08 9183   3.519   4.806   1.883
  484EMI    C05 9184   3.480   4.927   2.153
  484EMI    H0B 9185   3.471   4.909   2.258
  484EMI    H0C 9186   3.583   4.922   2.125
  484EMI    H0D 9187   3.441   5.024   2.131
  484EMI    N00 9188   3.404   4.826   2.079
  484EMI    C06 9189   3.135   4.595   2.044
  484EMI    H0F 9190   3.049   4.646   2.006
  484EMI    C0N 9191   3.156   4.465   1.963
  484EMI    H0O 9192   3.070   4.403   1.973
  484EMI    H0P 9193   3.172   4.489   1.860
  484EMI    H0Q 9194   3.242   4.413   2.001
  484EMI    N02 9195   3.253   4.680   2.031
  484EMI    H0E 9196   3.119   4.570   2.147
  485EMI    C01 9197   2.026   2.819   4.404
  485EMI    C04 9198   2.205   2.843   4.270
  485EMI    C03 9199   2.115   2.772   4.202
  485EMI    H07 9200   1.959   2.824   4.487
  485EMI    H09 9201   2.302   2.873   4.236
  485EMI    H08 9202   2.124   2.734   4.102
  485EMI    C05 9203   1.875   2.687   4.259
  485EMI    H0B 9204   1.794   2.732   4.312
  485EMI    H0C 9205   1.857   2.692   4.154
  485EMI    H0D 9206   1.884   2.584   4.289
  485EMI    N00 9207   1.999   2.758   4.291
  485EMI    C06 9208   2.208   2.948   4.509
  485EMI    H0F 9209   2.263   2.882   4.572
  485EMI    C0N 9210   2.304   3.053   4.449
  485EMI    H0O 9211   2.350   3.108   4.528
  485EMI    H0P 9212   2.380   3.003   4.392
  485EMI    H0Q 9213   2.250   3.120   4.385
  485EMI    N02 9214   2.145   2.872   4.400
  485EMI    H0E 9215   2.133   2.998   4.566
  486EMI    C01 9216   2.470   0.674   2.704
  486EMI    C04 9217   2.599   0.855   2.668
  486EMI    C03 9218   2.681   0.751   2.682
  486EMI    H07 9219   2.385   0.610   2.719
  486EMI    H09 9220   2.628   0.957   2.650
  486EMI    H08 9221   2.788   0.751   2.677
  486EMI    C05 9222   2.640   0.496   2.726
  486EMI    H0B 9223   2.566   0.428   2.689
  486EMI    H0C 9224   2.732   0.481   2.673
  486EMI    H0D 9225   2.656   0.479   2.830
  486EMI    N00 9226   2.594   0.635   2.705
  486EMI    C06 9227   2.340   0.882   2.676
  486EMI    H0F 9228   2.314   0.918   2.773
  486EMI    C0N 9229   2.361   1.002   2.581
  486EMI    H0O 9230   2.271   1.060   2.576
  486EMI    H0P 9231   2.441   1.063   2.619
  486EMI    H0Q 9232   2.387   0.966   2.483
  486EMI    N02 9233   2.463   0.803   2.683
  486EMI    H0E 9234   2.260   0.821   2.638
  487EMI    C01 9235   1.311   0.821   2.093
  487EMI    C04 9236   1.338   0.906   2.300
  487EMI    C03 9237   1.366   1.004   2.214
  487EMI    H07 9238   1.291   0.755   2.011
  487EMI    H09 9239   1.341   0.911   2.407
  487EMI    H08 9240   1.395   1.104   2.238
  487EMI    C05 9241   1.367   1.018   1.953
  487EMI    H0B 9242   1.302   0.977   1.879
  487EMI    H0C 9243   1.345   1.122   1.967
  487EMI    H0D 9244   1.469   1.007   1.921
  487EMI    N00 9245   1.348   0.947   2.080
  487EMI    C06 9246   1.265   0.657   2.271
  487EMI    H0F 9247   1.353   0.596   2.282
  487EMI    C0N 9248   1.196   0.673   2.407
  487EMI    H0O 9249   1.168   0.577   2.445
  487EMI    H0P 9250   1.263   0.720   2.476
  487EMI    H0Q 9251   1.108   0.733   2.396
  487EMI    N02 9252   1.303   0.789   2.219
  487EMI    H0E 9253   1.198   0.609   2.202
  488EMI    C01 9254   3.832   3.548   3.100
  488EMI    C04 9255   3.723   3.657   3.264
  488EMI    C03 9256   3.646   3.664   3.155
  488EMI    H07 9257   3.906   3.492   3.046
  488EMI    H09 9258   3.701   3.699   3.360
  488EMI    H08 9259   3.551   3.711   3.145
  488EMI    C05 9260   3.674   3.573   2.911
  488EMI    H0B 9261   3.714   3.481   2.873
  488EMI    H0C 9262   3.568   3.570   2.909
  488EMI    H0D 9263   3.709   3.654   2.851
  488EMI    N00 9264   3.720   3.592   3.050
  488EMI    C06 9265   3.955   3.550   3.315
  488EMI    H0F 9266   4.028   3.628   3.309
  488EMI    C0N 9267   3.904   3.536   3.459
  488EMI    H0O 9268   3.987   3.513   3.524
  488EMI    H0P 9269   3.860   3.629   3.490
  488EMI    H0Q 9270   3.831   3.458   3.465
  488EMI    N02 9271   3.842   3.582   3.226
  488EMI    H0E 9272   3.999   3.457   3.284
  489EMI    C01 9273   1.901   1.001   4.327
  489EMI    C04 9274   2.032   0.823   4.281
  489EMI    C03 9275   1.905   0.781   4.277
  489EMI    H07 9276   1.868   1.100   4.351
  489EMI    H09 9277   2.119   0.764   4.264
  489EMI    H08 9278   1.870   0.682   4.256
  489EMI    C05 9279   1.676   0.901   4.314
  489EMI    H0B 9280   1.640   0.998   4.286
  489EMI    H0C 9281   1.636   0.827   4.247
  489EMI    H0D 9282   1.644   0.879   4.414
  489EMI    N00 9283   1.823   0.898   4.307
  489EMI    C06 9284   2.143   1.054   4.329
  489EMI    H0F 9285   2.175   1.053   4.431
  489EMI    C0N 9286   2.257   1.005   4.238
  489EMI    H0O 9287   2.342   1.069   4.249
  489EMI    H0P 9288   2.284   0.905   4.266
  489EMI    H0Q 9289   2.225   1.006   4.136
  489EMI    N02 9290   2.026   0.965   4.314
  489EMI    H0E 9291   2.115   1.154   4.301
  490EMI    C01 9292   1.427   4.346   3.871
  490EMI    C04 9293   1.402   4.540   3.984
  490EMI    C03 9294   1.521   4.489   4.019
  490EMI    H07 9295   1.410   4.263   3.807
  490EMI    H09 9296   1.358   4.631   4.019
  490EMI    H08 9297   1.591   4.532   4.087
  490EMI    C05 9298   1.650   4.273   3.950
  490EMI    H0B 9299   1.660   4.223   3.856
  490EMI    H0C 9300   1.738   4.329   3.971
  490EMI    H0D 9301   1.634   4.201   4.027
  490EMI    N00 9302   1.534   4.364   3.944
  490EMI    C06 9303   1.212   4.460   3.823
  490EMI    H0F 9304   1.137   4.413   3.884
  490EMI    C0N 9305   1.179   4.609   3.806
  490EMI    H0O 9306   1.084   4.619   3.759
  490EMI    H0P 9307   1.176   4.656   3.903
  490EMI    H0Q 9308   1.254   4.656   3.746
  490EMI    N02 9309   1.343   4.445   3.889
  490EMI    H0E 9310   1.215   4.413   3.727
  491EMI    C01 9311   0.949   1.086   1.613
  491EMI    C04 9312   0.882   0.876   1.661
  491EMI    C03 9313   0.900   0.882   1.529
  491EMI    H07 9314   0.978   1.189   1.622
  491EMI    H09 9315   0.851   0.791   1.718
  491EMI    H08 9316   0.885   0.803   1.458
  491EMI    C05 9317   0.975   1.073   1.367
  491EMI    H0B 9318   1.049   1.150   1.376
  491EMI    H0C 9319   1.012   0.995   1.305
  491EMI    H0D 9320   0.886   1.114   1.323
  491EMI    N00 9321   0.943   1.019   1.500
  491EMI    C06 9322   0.909   1.050   1.854
  491EMI    H0F 9323   0.812   1.088   1.877
  491EMI    C0N 9324   0.940   0.928   1.944
  491EMI    H0O 9325   0.936   0.958   2.046
  491EMI    H0P 9326   0.867   0.852   1.926
  491EMI    H0Q 9327   1.037   0.890   1.921
  491EMI    N02 9328   0.915   1.009   1.713
  491EMI    H0E 9329   0.982   1.126   1.872
  492EMI    C01 9330   1.891   0.472   3.891
  492EMI    C04 9331   1.950   0.589   3.708
  492EMI    C03 9332   1.956   0.460   3.675
  492EMI    H07 9333   1.860   0.445   3.990
  492EMI    H09 9334   1.971   0.673   3.644
  492EMI    H08 9335   1.983   0.418   3.581
  492EMI    C05 9336   1.910   0.240   3.808
  492EMI    H0B 9337   1.835   0.214   3.880
  492EMI    H0C 9338   1.884   0.197   3.713
  492EMI    H0D 9339   2.004   0.201   3.840
  492EMI    N00 9340   1.917   0.386   3.796
  492EMI    C06 9341   1.887   0.716   3.927
  492EMI    H0F 9342   1.979   0.743   3.976
  492EMI    C0N 9343   1.843   0.831   3.834
  492EMI    H0O 9344   1.828   0.920   3.892
  492EMI    H0P 9345   1.918   0.848   3.761
  492EMI    H0Q 9346   1.751   0.804   3.786
  492EMI    N02 9347   1.908   0.594   3.848
  492EMI    H0E 9348   1.812   0.699   4.001
  493EMI    C01 9349   0.554   1.652   1.793
  493EMI    C04 9350   0.596   1.433   1.826
  493EMI    C03 9351   0.712   1.491   1.794
  493EMI    H07 9352   0.504   1.747   1.785
  493EMI    H09 9353   0.579   1.329   1.847
  493EMI    H08 9354   0.807   1.444   1.785
  493EMI    C05 9355   0.779   1.737   1.737
  493EMI    H0B 9356   0.748   1.831   1.777
  493EMI    H0C 9357   0.875   1.711   1.776
  493EMI    H0D 9358   0.785   1.744   1.630
  493EMI    N00 9359   0.682   1.633   1.773
  493EMI    C06 9360   0.352   1.523   1.853
  493EMI    H0F 9361   0.300   1.501   1.763
  493EMI    C0N 9362   0.333   1.407   1.953
  493EMI    H0O 9363   0.229   1.395   1.974
  493EMI    H0P 9364   0.372   1.317   1.910
  493EMI    H0Q 9365   0.386   1.429   2.044
  493EMI    N02 9366   0.495   1.540   1.824
  493EMI    H0E 9367   0.314   1.613   1.896
  494EMI    C01 9368   2.675   4.344   3.122
  494EMI    C04 9369   2.565   4.329   2.926
  494EMI    C03 9370   2.562   4.458   2.963
  494EMI    H07 9371   2.731   4.320   3.210
  494EMI    H09 9372   2.521   4.287   2.837
  494EMI    H08 9373   2.516   4.539   2.910
  494EMI    C05 9374   2.657   4.586   3.169
  494EMI    H0B 9375   2.749   4.577   3.223
  494EMI    H0C 9376   2.662   4.671   3.104
  494EMI    H0D 9377   2.577   4.599   3.238
  494EMI    N00 9378   2.634   4.464   3.090
  494EMI    C06 9379   2.667   4.114   3.032
  494EMI    H0F 9380   2.588   4.063   3.082
  494EMI    C0N 9381   2.678   4.062   2.888
  494EMI    H0O 9382   2.699   3.957   2.889
  494EMI    H0P 9383   2.586   4.080   2.836
  494EMI    H0Q 9384   2.757   4.113   2.837
  494EMI    N02 9385   2.639   4.258   3.030
  494EMI    H0E 9386   2.759   4.097   3.084
  495EMI    C01 9387   1.357   3.787   3.726
  495EMI    C04 9388   1.293   3.998   3.682
  495EMI    C03 9389   1.292   3.931   3.566
  495EMI    H07 9390   1.390   3.698   3.777
  495EMI    H09 9391   1.267   4.101   3.697
  495EMI    H08 9392   1.267   3.970   3.469
  495EMI    C05 9393   1.349   3.685   3.501
  495EMI    H0B 9394   1.330   3.592   3.550
  495EMI    H0C 9395   1.280   3.698   3.421
  495EMI    H0D 9396   1.449   3.684   3.463
  495EMI    N00 9397   1.335   3.795   3.598
  495EMI    C06 9398   1.350   3.931   3.927
  495EMI    H0F 9399   1.450   3.964   3.947
  495EMI    C0N 9400   1.251   4.041   3.968
  495EMI    H0O 9401   1.262   4.061   4.073
  495EMI    H0P 9402   1.270   4.130   3.912
  495EMI    H0Q 9403   1.151   4.007   3.949
  495EMI    N02 9404   1.335   3.902   3.784
  495EMI    H0E 9405   1.330   3.842   3.984
  496EMI    C01 9406   0.748   2.956   2.940
  496EMI    C04 9407   0.900   2.818   3.034
  496EMI    C03 9408   0.967   2.924   2.988
  496EMI    H07 9409   0.657   2.998   2.905
  496EMI    H09 9410   0.941   2.733   3.085
  496EMI    H08 9411   1.072   2.941   2.993
  496EMI    C05 9412   0.893   3.141   2.863
  496EMI    H0B 9413   0.808   3.205   2.875
  496EMI    H0C 9414   0.978   3.186   2.908
  496EMI    H0D 9415   0.911   3.126   2.759
  496EMI    N00 9416   0.866   3.012   2.927
  496EMI    C06 9417   0.648   2.750   3.034
  496EMI    H0F 9418   0.633   2.682   2.953
  496EMI    C0N 9419   0.681   2.672   3.163
  496EMI    H0O 9420   0.600   2.606   3.186
  496EMI    H0P 9421   0.770   2.615   3.148
  496EMI    H0Q 9422   0.695   2.741   3.244
  496EMI    N02 9423   0.759   2.841   3.002
  496EMI    H0E 9424   0.559   2.807   3.049
  497EMI    C01 9425   3.732   4.390   1.978
  497EMI    C04 9426   3.914   4.410   2.110
  497EMI    C03 9427   3.878   4.533   2.074
  497EMI    H07 9428   3.651   4.349   1.921
  497EMI    H09 9429   3.997   4.383   2.173
  497EMI    H08 9430   3.925   4.625   2.102
  497EMI    C05 9431   3.685   4.626   1.925
  497EMI    H0B 9432   3.582   4.598   1.914
  497EMI    H0C 9433   3.691   4.714   1.985
  497EMI    H0D 9434   3.726   4.647   1.828
  497EMI    N00 9435   3.760   4.517   1.988
  497EMI    C06 9436   3.819   4.172   2.058
  497EMI    H0F 9437   3.879   4.131   1.980
  497EMI    C0N 9438   3.877   4.132   2.194
  497EMI    H0O 9439   3.878   4.025   2.203
  497EMI    H0P 9440   3.978   4.169   2.203
  497EMI    H0Q 9441   3.818   4.174   2.273
  497EMI    N02 9442   3.818   4.319   2.046
  497EMI    H0E 9443   3.719   4.136   2.050
  498EMI    C01 9444   2.466   1.907   3.384
  498EMI    C04 9445   2.578   2.091   3.313
  498EMI    C03 9446   2.668   1.993   3.328
  498EMI    H07 9447   2.389   1.841   3.415
  498EMI    H09 9448   2.596   2.191   3.281
  498EMI    H08 9449   2.773   1.999   3.310
  498EMI    C05 9450   2.651   1.744   3.404
  498EMI    H0B 9451   2.578   1.668   3.384
  498EMI    H0C 9452   2.737   1.728   3.342
  498EMI    H0D 9453   2.679   1.740   3.507
  498EMI    N00 9454   2.593   1.875   3.374
  498EMI    C06 9455   2.319   2.103   3.349
  498EMI    H0F 9456   2.302   2.148   3.444
  498EMI    C0N 9457   2.321   2.212   3.240
  498EMI    H0O 9458   2.227   2.263   3.239
  498EMI    H0P 9459   2.400   2.282   3.261
  498EMI    H0Q 9460   2.338   2.167   3.144
  498EMI    N02 9461   2.448   2.032   3.350
  498EMI    H0E 9462   2.241   2.033   3.328
  499EMI    C01 9463   1.255   2.219   4.961
  499EMI    C04 9464   1.315   2.012   5.030
  499EMI    C03 9465   1.188   2.031   5.066
  499EMI    H07 9466   1.257   2.317   4.917
  499EMI    H09 9467   1.375   1.925   5.047
  499EMI    H08 9468   1.125   1.962   5.119
  499EMI    C05 9469   1.021   2.230   5.038
  499EMI    H0B 9470   1.003   2.298   4.957
  499EMI    H0C 9471   0.944   2.155   5.040
  499EMI    H0D 9472   1.020   2.284   5.131
  499EMI    N00 9473   1.152   2.166   5.020
  499EMI    C06 9474   1.489   2.161   4.904
  499EMI    H0F 9475   1.552   2.206   4.978
  499EMI    C0N 9476   1.551   2.028   4.857
  499EMI    H0O 9477   1.648   2.047   4.815
  499EMI    H0P 9478   1.561   1.962   4.940
  499EMI    H0Q 9479   1.488   1.984   4.783
  499EMI    N02 9480   1.356   2.136   4.962
  499EMI    H0E 9481   1.479   2.227   4.821
  500EMI    C01 9482   3.788   4.630   2.697
  500EMI    C04 9483   3.836   4.469   2.546
  500EMI    C03 9484   3.931   4.564   2.535
  500EMI    H07 9485   3.741   4.687   2.774
  500EMI    H09 9486   3.829   4.379   2.490
  500EMI    H08 9487   4.014   4.564   2.468
  500EMI    C05 9488   3.972   4.790   2.658
  500EMI    H0B 9489   3.962   4.819   2.760
  500EMI    H0C 9490   4.076   4.774   2.636
  500EMI    H0D 9491   3.934   4.868   2.595
  500EMI    N00 9492   3.897   4.666   2.634
  500EMI    C06 9493   3.626   4.443   2.699
  500EMI    H0F 9494   3.541   4.473   2.642
  500EMI    C0N 9495   3.648   4.292   2.683
  500EMI    H0O 9496   3.561   4.239   2.717
  500EMI    H0P 9497   3.665   4.269   2.579
  500EMI    H0Q 9498   3.733   4.261   2.740
  500EMI    N02 9499   3.746   4.515   2.652
  500EMI    H0E 9500   3.610   4.466   2.802
    1BF4      B 9501   0.807   3.151   3.610
    1BF4      F 9502   0.903   3.037   3.623
    1BF4      F 9503   0.804   3.198   3.467
    1BF4      F 9504   0.669   3.106   3.650
    1BF4      F 9505   0.851   3.264   3.699
    2BF4      B 9506   4.539   0.899   0.234
    2BF4      F 9507   4.524   1.016   0.142
    2BF4      F 9508   4.544   0.947   0.376
    2BF4      F 9509   4.422   0.806   0.217
    2BF4      F 9510   4.665   0.825   0.201
    3BF4      B 9511   0.197   2.219   0.689
    3BF4      F 9512   0.313   2.154   0.620
    3BF4      F 9513   0.114   2.113   0.756
    3BF4      F 9514   0.247   2.316   0.792
    3BF4      F 9515   0.113   2.291   0.588
    4BF4      B 9516   1.160   1.912   4.791
    4BF4      F 9517   1.070   1.913   4.911
    4BF4      F 9518   1.113   1.808   4.694
    4BF4      F 9519   1.157   2.047   4.726
    4BF4      F 9520   1.300   1.881   4.834
    5BF4      B 9521   1.538   2.963   3.502
    5BF4      F 9522   1.400   2.907   3.482
    5BF4      F 9523   1.621   2.935   3.380
    5BF4      F 9524   1.529   3.111   3.524
    5BF4      F 9525   1.601   2.898   3.621
    6BF4      B 9526   3.081   2.968   1.980
    6BF4      F 9527   3.079   2.819   1.998
    6BF4      F 9528   3.177   3.004   1.870
    6BF4      F 9529   2.944   3.016   1.945
    6BF4      F 9530   3.126   3.033   2.108
    7BF4      B 9531   3.777   1.450   3.512
    7BF4      F 9532   3.737   1.377   3.387
    7BF4      F 9533   3.772   1.598   3.486
    7BF4      F 9534   3.683   1.415   3.623
    7BF4      F 9535   3.916   1.411   3.550
    8BF4      B 9536   2.692   3.275   4.949
    8BF4      F 9537   2.834   3.322   4.943
    8BF4      F 9538   2.618   3.352   5.055
    8BF4      F 9539   2.626   3.296   4.816
    8BF4      F 9540   2.689   3.129   4.983
    9BF4      B 9541   0.947   1.727   2.271
    9BF4      F 9542   1.035   1.848   2.264
    9BF4      F 9543   0.803   1.770   2.274
    9BF4      F 9544   0.971   1.639   2.152
    9BF4      F 9545   0.978   1.650   2.396
   10BF4      B 9546   2.628   2.570   3.128
   10BF4      F 9547   2.594   2.710   3.086
   10BF4      F 9548   2.740   2.518   3.043
   10BF4      F 9549   2.670   2.569   3.272
   10BF4      F 9550   2.508   2.482   3.111
   11BF4      B 9551   1.631   2.390   4.204
   11BF4      F 9552   1.559   2.493   4.287
   11BF4      F 9553   1.757   2.349   4.274
   11BF4      F 9554   1.543   2.270   4.185
   11BF4      F 9555   1.664   2.449   4.071
   12BF4      B 9556   1.129   0.248   4.551
   12BF4      F 9557   1.081   0.108   4.578
   12BF4      F 9558   1.245   0.244   4.456
   12BF4      F 9559   1.018   0.327   4.489
   12BF4      F 9560   1.171   0.312   4.680
   13BF4      B 9561   2.946   2.133   4.577
   13BF4      F 9562   2.827   2.225   4.573
   13BF4      F 9563   2.914   2.007   4.503
   13BF4      F 9564   3.063   2.201   4.513
   13BF4      F 9565   2.978   2.101   4.720
   14BF4      B 9566   2.821   4.527   3.779
   14BF4      F 9567   2.699   4.574   3.705
   14BF4      F 9568   2.792   4.394   3.843
   14BF4      F 9569   2.935   4.513   3.683
   14BF4      F 9570   2.857   4.627   3.885
   15BF4      B 9571   0.894   2.211   0.682
   15BF4      F 9572   0.754   2.265   0.689
   15BF4      F 9573   0.889   2.061   0.675
   15BF4      F 9574   0.963   2.265   0.560
   15BF4      F 9575   0.970   2.252   0.805
   16BF4      B 9576   2.572   0.792   4.894
   16BF4      F 9577   2.538   0.667   4.970
   16BF4      F 9578   2.473   0.811   4.783
   16BF4      F 9579   2.568   0.910   4.986
   16BF4      F 9580   2.710   0.778   4.835
   17BF4      B 9581   3.280   1.150   1.761
   17BF4      F 9582   3.171   1.252   1.771
   17BF4      F 9583   3.222   1.018   1.723
   17BF4      F 9584   3.379   1.193   1.656
   17BF4      F 9585   3.350   1.139   1.893
   18BF4      B 9586   1.982   1.107   3.538
   18BF4      F 9587   2.104   1.019   3.534
   18BF4      F 9588   2.024   1.251   3.535
   18BF4      F 9589   1.894   1.077   3.420
   18BF4      F 9590   1.906   1.079   3.665
   19BF4      B 9591   0.450   1.885   3.773
   19BF4      F 9592   0.380   1.825   3.891
   19BF4      F 9593   0.452   1.787   3.660
   19BF4      F 9594   0.377   2.009   3.730
   19BF4      F 9595   0.591   1.921   3.810
   20BF4      B 9596   0.411   2.758   2.095
   20BF4      F 9597   0.357   2.873   2.175
   20BF4      F 9598   0.463   2.809   1.964
   20BF4      F 9599   0.523   2.692   2.171
   20BF4      F 9600   0.302   2.659   2.070
   21BF4      B 9601   3.138   3.411   0.925
   21BF4      F 9602   3.132   3.549   0.985
   21BF4      F 9603   3.083   3.312   1.023
   21BF4      F 9604   3.056   3.408   0.800
   21BF4      F 9605   3.280   3.377   0.893
   22BF4      B 9606   0.481   4.196   0.774
   22BF4      F 9607   0.358   4.280   0.793
   22BF4      F 9608   0.602   4.284   0.767
   22BF4      F 9609   0.495   4.100   0.889
   22BF4      F 9610   0.468   4.118   0.646
   23BF4      B 9611   3.216   0.989   4.433
   23BF4      F 9612   3.206   0.840   4.419
   23BF4      F 9613   3.158   1.054   4.311
   23BF4      F 9614   3.139   1.033   4.554
   23BF4      F 9615   3.359   1.029   4.448
   24BF4      B 9616   0.292   3.651   2.936
   24BF4      F 9617   0.268   3.592   2.801
   24BF4      F 9618   0.239   3.558   3.041
   24BF4      F 9619   0.439   3.671   2.957
   24BF4      F 9620   0.222   3.783   2.947
   25BF4      B 9621   2.244   2.992   1.749
   25BF4      F 9622   2.342   3.105   1.740
   25BF4      F 9623   2.309   2.874   1.814
   25BF4      F 9624   2.125   3.035   1.831
   25BF4      F 9625   2.198   2.954   1.611
   26BF4      B 9626   2.233   4.590   2.923
   26BF4      F 9627   2.191   4.734   2.924
   26BF4      F 9628   2.110   4.503   2.918
   26BF4      F 9629   2.318   4.563   2.803
   26BF4      F 9630   2.310   4.560   3.048
   27BF4      B 9631   3.567   3.500   3.598
   27BF4      F 9632   3.454   3.547   3.685
   27BF4      F 9633   3.698   3.535   3.662
   27BF4      F 9634   3.558   3.352   3.579
   27BF4      F 9635   3.557   3.568   3.464
   28BF4      B 9636   2.603   3.757   3.854
   28BF4      F 9637   2.666   3.833   3.741
   28BF4      F 9638   2.579   3.615   3.812
   28BF4      F 9639   2.695   3.760   3.973
   28BF4      F 9640   2.472   3.821   3.890
   29BF4      B 9641   0.348   2.425   3.790
   29BF4      F 9642   0.351   2.518   3.672
   29BF4      F 9643   0.488   2.383   3.823
   29BF4      F 9644   0.287   2.495   3.907
   29BF4      F 9645   0.266   2.304   3.756
   30BF4      B 9646   4.019   1.462   4.966
   30BF4      F 9647   4.028   1.313   4.960
   30BF4      F 9648   4.150   1.522   4.924
   30BF4      F 9649   3.911   1.510   4.873
   30BF4      F 9650   3.986   1.505   5.106
   31BF4      B 9651   1.273   1.962   2.211
   31BF4      F 9652   1.363   2.062   2.145
   31BF4      F 9653   1.357   1.860   2.283
   31BF4      F 9654   1.184   2.031   2.309
   31BF4      F 9655   1.189   1.893   2.107
   32BF4      B 9656   1.783   3.714   3.609
   32BF4      F 9657   1.931   3.735   3.596
   32BF4      F 9658   1.713   3.846   3.608
   32BF4      F 9659   1.734   3.630   3.495
   32BF4      F 9660   1.754   3.643   3.739
   33BF4      B 9661   2.652   4.081   0.164
   33BF4      F 9662   2.638   3.934   0.190
   33BF4      F 9663   2.778   4.106   0.085
   33BF4      F 9664   2.534   4.129   0.085
   33BF4      F 9665   2.659   4.155   0.294
   34BF4      B 9666   4.835   2.994   3.818
   34BF4      F 9667   4.694   2.961   3.777
   34BF4      F 9668   4.838   3.030   3.963
   34BF4      F 9669   4.923   2.874   3.795
   34BF4      F 9670   4.885   3.109   3.736
   35BF4      B 9671   2.542   1.265   3.307
   35BF4      F 9672   2.677   1.309   3.259
   35BF4      F 9673   2.475   1.378   3.380
   35BF4      F 9674   2.458   1.224   3.190
   35BF4      F 9675   2.558   1.148   3.400
   36BF4      B 9676   2.285   3.426   4.243
   36BF4      F 9677   2.304   3.331   4.357
   36BF4      F 9678   2.382   3.393   4.134
   36BF4      F 9679   2.145   3.413   4.190
   36BF4      F 9680   2.308   3.566   4.290
   37BF4      B 9681   1.462   3.075   1.706
   37BF4      F 9682   1.348   2.991   1.755
   37BF4      F 9683   1.576   2.985   1.666
   37BF4      F 9684   1.418   3.156   1.587
   37BF4      F 9685   1.507   3.167   1.815
   38BF4      B 9686   3.142   0.370   4.587
   38BF4      F 9687   3.016   0.448   4.614
   38BF4      F 9688   3.107   0.226   4.563
   38BF4      F 9689   3.211   0.426   4.467
   38BF4      F 9690   3.233   0.381   4.706
   39BF4      B 9691   1.264   2.418   4.596
   39BF4      F 9692   1.282   2.520   4.704
   39BF4      F 9693   1.186   2.478   4.483
   39BF4      F 9694   1.399   2.374   4.546
   39BF4      F 9695   1.190   2.300   4.651
   40BF4      B 9696   1.758   4.668   3.912
   40BF4      F 9697   1.611   4.651   3.885
   40BF4      F 9698   1.826   4.535   3.900
   40BF4      F 9699   1.816   4.763   3.811
   40BF4      F 9700   1.778   4.722   4.050
   41BF4      B 9701   1.528   2.663   5.004
   41BF4      F 9702   1.570   2.521   5.029
   41BF4      F 9703   1.544   2.742   5.131
   41BF4      F 9704   1.614   2.723   4.897
   41BF4      F 9705   1.385   2.666   4.961
   42BF4      B 9706   4.883   0.122   2.995
   42BF4      F 9707   4.856   0.120   2.847
   42BF4      F 9708   5.013   0.051   3.022
   42BF4      F 9709   4.893   0.264   3.042
   42BF4      F 9710   4.772   0.052   3.067
   43BF4      B 9711   0.998   0.732   3.240
   43BF4      F 9712   1.146   0.738   3.221
   43BF4      F 9713   0.957   0.589   3.263
   43BF4      F 9714   0.959   0.814   3.359
   43BF4      F 9715   0.929   0.784   3.118
   44BF4      B 9716   2.930   1.959   3.546
   44BF4      F 9717   2.867   2.087   3.500
   44BF4      F 9718   2.824   1.871   3.606
   44BF4      F 9719   2.993   1.889   3.430
   44BF4      F 9720   3.035   1.989   3.649
   45BF4      B 9721   1.365   3.785   2.620
   45BF4      F 9722   1.449   3.778   2.496
   45BF4      F 9723   1.446   3.740   2.738
   45BF4      F 9724   1.318   3.925   2.642
   45BF4      F 9725   1.246   3.694   2.605
   46BF4      B 9726   3.695   0.525   1.994
   46BF4      F 9727   3.567   0.551   1.920
   46BF4      F 9728   3.811   0.545   1.901
   46BF4      F 9729   3.706   0.620   2.109
   46BF4      F 9730   3.696   0.384   2.045
   47BF4      B 9731   3.121   4.031   1.115
   47BF4      F 9732   3.230   3.929   1.092
   47BF4      F 9733   3.183   4.161   1.155
   47BF4      F 9734   3.042   4.049   0.988
   47BF4      F 9735   3.031   3.982   1.224
   48BF4      B 9736   4.267   2.940   4.991
   48BF4      F 9737   4.131   2.967   4.934
   48BF4      F 9738   4.372   2.985   4.894
   48BF4      F 9739   4.282   3.016   5.120
   48BF4      F 9740   4.282   2.794   5.018
   49BF4      B 9741   2.476   3.866   2.323
   49BF4      F 9742   2.481   3.996   2.249
   49BF4      F 9743   2.582   3.865   2.429
   49BF4      F 9744   2.341   3.851   2.387
   49BF4      F 9745   2.500   3.753   2.228
   50BF4      B 9746   3.397   2.065   2.799
   50BF4      F 9747   3.528   2.122   2.844
   50BF4      F 9748   3.302   2.178   2.768
   50BF4      F 9749   3.417   1.982   2.676
   50BF4      F 9750   3.339   1.980   2.908
   51BF4      B 9751   3.216   2.336   0.230
   51BF4      F 9752   3.322   2.236   0.197
   51BF4      F 9753   3.280   2.467   0.266
   51BF4      F 9754   3.127   2.356   0.110
   51BF4      F 9755   3.134   2.286   0.345
   52BF4      B 9756   0.401   1.841   2.166
   52BF4      F 9757   0.314   1.806   2.284
   52BF4      F 9758   0.432   1.717   2.089
   52BF4      F 9759   0.328   1.938   2.078
   52BF4      F 9760   0.528   1.903   2.215
   53BF4      B 9761   2.112   0.189   3.413
   53BF4      F 9762   2.184   0.188   3.282
   53BF4      F 9763   2.205   0.235   3.521
   53BF4      F 9764   1.995   0.284   3.405
   53BF4      F 9765   2.063   0.051   3.445
   54BF4      B 9766   4.073   0.475   1.455
   54BF4      F 9767   4.000   0.371   1.374
   54BF4      F 9768   3.975   0.579   1.501
   54BF4      F 9769   4.137   0.410   1.574
   54BF4      F 9770   4.178   0.539   1.370
   55BF4      B 9771   1.066   2.514   2.849
   55BF4      F 9772   1.173   2.415   2.814
   55BF4      F 9773   0.939   2.440   2.881
   55BF4      F 9774   1.108   2.595   2.968
   55BF4      F 9775   1.042   2.605   2.732
   56BF4      B 9776   3.050   3.248   3.662
   56BF4      F 9777   2.908   3.298   3.668
   56BF4      F 9778   3.127   3.328   3.562
   56BF4      F 9779   3.113   3.262   3.797
   56BF4      F 9780   3.049   3.103   3.622
   57BF4      B 9781   1.488   3.469   0.738
   57BF4      F 9782   1.576   3.560   0.819
   57BF4      F 9783   1.451   3.350   0.820
   57BF4      F 9784   1.364   3.542   0.696
   57BF4      F 9785   1.563   3.424   0.616
   58BF4      B 9786   3.293   3.953   3.628
   58BF4      F 9787   3.414   3.962   3.715
   58BF4      F 9788   3.286   4.075   3.540
   58BF4      F 9789   3.300   3.830   3.543
   58BF4      F 9790   3.170   3.947   3.714
   59BF4      B 9791   4.692   4.375   3.026
   59BF4      F 9792   4.575   4.287   3.060
   59BF4      F 9793   4.818   4.295   3.030
   59BF4      F 9794   4.673   4.433   2.889
   59BF4      F 9795   4.700   4.486   3.126
   60BF4      B 9796   5.040   3.758   3.830
   60BF4      F 9797   5.141   3.647   3.822
   60BF4      F 9798   5.111   3.890   3.829
   60BF4      F 9799   4.948   3.750   3.712
   60BF4      F 9800   4.961   3.745   3.957
   61BF4      B 9801   1.795   4.636   2.695
   61BF4      F 9802   1.887   4.749   2.732
   61BF4      F 9803   1.861   4.505   2.727
   61BF4      F 9804   1.668   4.648   2.774
   61BF4      F 9805   1.764   4.642   2.549
   62BF4      B 9806   3.915   0.452   2.943
   62BF4      F 9807   3.941   0.317   3.004
   62BF4      F 9808   4.038   0.537   2.954
   62BF4      F 9809   3.879   0.435   2.798
   62BF4      F 9810   3.801   0.519   3.015
   63BF4      B 9811   2.834   3.292   2.882
   63BF4      F 9812   2.971   3.294   2.942
   63BF4      F 9813   2.795   3.431   2.841
   63BF4      F 9814   2.833   3.201   2.763
   63BF4      F 9815   2.736   3.241   2.984
   64BF4      B 9816   2.364   0.139   4.619
   64BF4      F 9817   2.395   0.051   4.501
   64BF4      F 9818   2.493   0.180   4.685
   64BF4      F 9819   2.290   0.261   4.574
   64BF4      F 9820   2.280   0.062   4.717
   65BF4      B 9821   2.114   0.547   4.382
   65BF4      F 9822   2.126   0.429   4.474
   65BF4      F 9823   2.084   0.499   4.243
   65BF4      F 9824   2.002   0.636   4.429
   65BF4      F 9825   2.242   0.624   4.381
   66BF4      B 9826   2.110   1.604   1.514
   66BF4      F 9827   2.200   1.485   1.532
   66BF4      F 9828   1.975   1.558   1.467
   66BF4      F 9829   2.095   1.675   1.645
   66BF4      F 9830   2.169   1.697   1.413
   67BF4      B 9831   3.892   1.205   4.165
   67BF4      F 9832   3.785   1.129   4.091
   67BF4      F 9833   4.026   1.145   4.135
   67BF4      F 9834   3.890   1.348   4.122
   67BF4      F 9835   3.865   1.197   4.312
   68BF4      B 9836   1.892   2.540   3.474
   68BF4      F 9837   1.838   2.650   3.561
   68BF4      F 9838   1.872   2.577   3.330
   68BF4      F 9839   2.039   2.523   3.501
   68BF4      F 9840   1.820   2.412   3.503
   69BF4      B 9841   0.566   2.751   3.703
   69BF4      F 9842   0.423   2.781   3.738
   69BF4      F 9843   0.635   2.878   3.664
   69BF4      F 9844   0.635   2.691   3.821
   69BF4      F 9845   0.570   2.654   3.588
   70BF4      B 9846   3.724   4.728   2.375
   70BF4      F 9847   3.670   4.672   2.504
   70BF4      F 9848   3.871   4.698   2.366
   70BF4      F 9849   3.653   4.664   2.259
   70BF4      F 9850   3.703   4.876   2.372
   71BF4      B 9851   4.175   3.616   1.107
   71BF4      F 9852   4.124   3.511   1.202
   71BF4      F 9853   4.281   3.697   1.174
   71BF4      F 9854   4.231   3.549   0.985
   71BF4      F 9855   4.062   3.706   1.066
   72BF4      B 9856   2.509   1.625   0.413
   72BF4      F 9857   2.388   1.541   0.384
   72BF4      F 9858   2.602   1.549   0.503
   72BF4      F 9859   2.580   1.657   0.284
   72BF4      F 9860   2.467   1.752   0.480
   73BF4      B 9861   5.074   2.523   2.163
   73BF4      F 9862   4.930   2.485   2.155
   73BF4      F 9863   5.159   2.399   2.157
   73BF4      F 9864   5.109   2.612   2.047
   73BF4      F 9865   5.100   2.595   2.291
   74BF4      B 9866   1.898   3.218   4.954
   74BF4      F 9867   2.016   3.310   4.938
   74BF4      F 9868   1.793   3.254   4.853
   74BF4      F 9869   1.942   3.076   4.933
   74BF4      F 9870   1.841   3.233   5.092
   75BF4      B 9871   0.472   4.715   2.505
   75BF4      F 9872   0.471   4.742   2.653
   75BF4      F 9873   0.353   4.631   2.469
   75BF4      F 9874   0.466   4.845   2.431
   75BF4      F 9875   0.598   4.643   2.468
   76BF4      B 9876   4.694   3.601   3.221
   76BF4      F 9877   4.658   3.727   3.147
   76BF4      F 9878   4.589   3.573   3.324
   76BF4      F 9879   4.700   3.486   3.124
   76BF4      F 9880   4.827   3.618   3.287
   77BF4      B 9881   0.196   2.635   1.202
   77BF4      F 9882   0.144   2.505   1.256
   77BF4      F 9883   0.339   2.617   1.159
   77BF4      F 9884   0.114   2.677   1.085
   77BF4      F 9885   0.189   2.740   1.309
   78BF4      B 9886   0.202   1.302   4.792
   78BF4      F 9887   0.114   1.269   4.675
   78BF4      F 9888   0.122   1.292   4.919
   78BF4      F 9889   0.317   1.207   4.797
   78BF4      F 9890   0.254   1.442   4.777
   79BF4      B 9891   1.711   2.041   3.484
   79BF4      F 9892   1.618   1.933   3.437
   79BF4      F 9893   1.689   2.065   3.630
   79BF4      F 9894   1.853   1.999   3.461
   79BF4      F 9895   1.683   2.167   3.408
   80BF4      B 9896   0.647   1.301   4.206
   80BF4      F 9897   0.525   1.263   4.127
   80BF4      F 9898   0.701   1.179   4.276
   80BF4      F 9899   0.752   1.356   4.114
   80BF4      F 9900   0.610   1.405   4.308
   81BF4      B 9901   4.723   0.327   4.731
   81BF4      F 9902   4.604   0.413   4.763
   81BF4      F 9903   4.793   0.290   4.858
   81BF4      F 9904   4.677   0.203   4.660
   81BF4      F 9905   4.817   0.404   4.643
   82BF4      B 9906   1.940   2.069   2.056
   82BF4      F 9907   1.803   2.126   2.038
   82BF4      F 9908   1.931   1.920   2.070
   82BF4      F 9909   2.024   2.103   1.936
   82BF4      F 9910   2.003   2.127   2.179
   83BF4      B 9911   4.931   2.271   3.517
   83BF4      F 9912   4.787   2.239   3.543
   83BF4      F 9913   4.942   2.409   3.458
   83BF4      F 9914   5.008   2.266   3.646
   83BF4      F 9915   4.988   2.171   3.421
   84BF4      B 9916   3.991   4.374   2.783
   84BF4      F 9917   4.066   4.495   2.736
   84BF4      F 9918   4.085   4.284   2.859
   84BF4      F 9919   3.879   4.416   2.873
   84BF4      F 9920   3.936   4.300   2.665
   85BF4      B 9921   4.060   0.532   3.611
   85BF4      F 9922   4.204   0.517   3.652
   85BF4      F 9923   4.054   0.581   3.469
   85BF4      F 9924   3.991   0.399   3.621
   85BF4      F 9925   3.993   0.631   3.701
   86BF4      B 9926   0.649   3.521   4.705
   86BF4      F 9927   0.743   3.625   4.758
   86BF4      F 9928   0.725   3.426   4.616
   86BF4      F 9929   0.589   3.445   4.819
   86BF4      F 9930   0.541   3.588   4.626
   87BF4      B 9931   4.579   3.860   4.650
   87BF4      F 9932   4.586   3.966   4.756
   87BF4      F 9933   4.454   3.779   4.668
   87BF4      F 9934   4.578   3.924   4.514
   87BF4      F 9935   4.699   3.770   4.661
   88BF4      B 9936   2.307   1.944   3.041
   88BF4      F 9937   2.205   1.909   3.145
   88BF4      F 9938   2.438   1.974   3.108
   88BF4      F 9939   2.324   1.829   2.947
   88BF4      F 9940   2.261   2.065   2.965
   89BF4      B 9941   1.743   4.065   0.897
   89BF4      F 9942   1.601   4.112   0.888
   89BF4      F 9943   1.786   4.011   0.764
   89BF4      F 9944   1.831   4.181   0.934
   89BF4      F 9945   1.755   3.958   1.001
   90BF4      B 9946   4.042   4.663   2.972
   90BF4      F 9947   3.987   4.777   3.052
   90BF4      F 9948   3.944   4.626   2.864
   90BF4      F 9949   4.172   4.705   2.908
   90BF4      F 9950   4.065   4.546   3.061
   91BF4      B 9951   4.464   0.157   3.878
   91BF4      F 9952   4.398   0.138   4.011
   91BF4      F 9953   4.571   0.054   3.861
   91BF4      F 9954   4.362   0.143   3.769
   91BF4      F 9955   4.525   0.294   3.872
   92BF4      B 9956   3.967   3.999   2.817
   92BF4      F 9957   3.938   3.859   2.861
   92BF4      F 9958   4.114   4.027   2.831
   92BF4      F 9959   3.926   4.017   2.674
   92BF4      F 9960   3.890   4.095   2.903
   93BF4      B 9961   4.489   3.040   4.330
   93BF4      F 9962   4.596   2.940   4.364
   93BF4      F 9963   4.355   2.973   4.335
   93BF4      F 9964   4.493   3.153   4.429
   93BF4      F 9965   4.513   3.093   4.192
   94BF4      B 9966   2.627   3.524   4.168
   94BF4      F 9967   2.712   3.646   4.186
   94BF4      F 9968   2.714   3.402   4.169
   94BF4      F 9969   2.528   3.515   4.280
   94BF4      F 9970   2.555   3.532   4.037
   95BF4      B 9971   2.546   3.112   4.229
   95BF4      F 9972   2.410   3.174   4.245
   95BF4      F 9973   2.530   2.967   4.195
   95BF4      F 9974   2.620   3.181   4.118
   95BF4      F 9975   2.623   3.125   4.357
   96BF4      B 9976   1.242   1.353   0.763
   96BF4      F 9977   1.225   1.205   0.774
   96BF4      F 9978   1.136   1.421   0.846
   96BF4      F 9979   1.378   1.392   0.814
   96BF4      F 9980   1.227   1.395   0.620
   97BF4      B 9981   0.513   3.803   2.125
   97BF4      F 9982   0.410   3.907   2.093
   97BF4      F 9983   0.640   3.870   2.167
   97BF4      F 9984   0.463   3.715   2.235
   97BF4      F 9985   0.539   3.720   2.002
   98BF4      B 9986   2.378   1.360   4.221
   98BF4      F 9987   2.362   1.248   4.122
   98BF4      F 9988   2.442   1.307   4.346
   98BF4      F 9989   2.465   1.467   4.161
   98BF4      F 9990   2.244   1.418   4.253
   99BF4      B 9991   0.349   4.851   1.228
   99BF4      F 9992   0.353   4.701   1.241
   99BF4      F 9993   0.209   4.900   1.254
   99BF4      F 9994   0.443   4.912   1.327
   99BF4      F 9995   0.390   4.890   1.089
  100BF4      B 9996   0.570   3.853   2.582
  100BF4      F 9997   0.629   3.815   2.715
  100BF4      F 9998   0.462   3.756   2.546
  100BF4      F 9999   0.513   3.991   2.590
  100BF4      F10000   0.677   3.849   2.477
  101BF4      B10001   1.742   5.047   0.663
  101BF4      F10002   1.687   5.097   0.532
  101BF4      F10003   1.657   5.098   0.776
  101BF4      F10004   1.741   4.897   0.663
  101BF4      F10005   1.882   5.097   0.680
  102BF4      B10006   3.634   3.152   2.659
  102BF4      F10007   3.485   3.145   2.664
  102BF4      F10008   3.678   3.295   2.678
  102BF4      F10009   3.693   3.067   2.767
  102BF4      F10010   3.682   3.103   2.525
  103BF4      B10011   0.425   1.727   2.745
  103BF4      F10012   0.569   1.767   2.756
  103BF4      F10013   0.415   1.577   2.738
  103BF4      F10014   0.350   1.777   2.864
  103BF4      F10015   0.366   1.786   2.620
  104BF4      B10016   4.453   0.157   3.195
  104BF4      F10017   4.512   0.159   3.333
  104BF4      F10018   4.398   0.294   3.163
  104BF4      F10019   4.558   0.121   3.095
  104BF4      F10020   4.341   0.057   3.191
  105BF4      B10021   4.078   4.470   0.315
  105BF4      F10022   3.990   4.402   0.214
  105BF4      F10023   4.189   4.542   0.244
  105BF4      F10024   3.997   4.569   0.393
  105BF4      F10025   4.136   4.368   0.408
  106BF4      B10026   4.219   3.276   3.001
  106BF4      F10027   4.250   3.268   3.147
  106BF4      F10028   4.071   3.280   2.981
  106BF4      F10029   4.281   3.400   2.943
  106BF4      F10030   4.275   3.155   2.931
  107BF4      B10031   0.289   4.831   1.580
  107BF4      F10032   0.296   4.682   1.567
  107BF4      F10033   0.427   4.889   1.564
  107BF4      F10034   0.199   4.887   1.474
  107BF4      F10035   0.236   4.868   1.715
  108BF4      B10036   4.391   0.198   4.812
  108BF4      F10037   4.497   0.103   4.860
  108BF4      F10038   4.258   0.156   4.867
  108BF4      F10039   4.423   0.336   4.860
  108BF4      F10040   4.386   0.196   4.662
  109BF4      B10041   3.351   3.910   0.438
  109BF4      F10042   3.497   3.918   0.471
  109BF4      F10043   3.295   4.049   0.425
  109BF4      F10044   3.333   3.836   0.310
  109BF4      F10045   3.279   3.838   0.548
  110BF4      B10046   2.411   3.094   5.036
  110BF4      F10047   2.531   3.029   5.099
  110BF4      F10048   2.425   3.243   5.045
  110BF4      F10049   2.402   3.053   4.892
  110BF4      F10050   2.288   3.050   5.109
  111BF4      B10051   1.160   5.017   4.742
  111BF4      F10052   1.294   4.986   4.803
  111BF4      F10053   1.078   5.097   4.840
  111BF4      F10054   1.179   5.097   4.617
  111BF4      F10055   1.089   4.889   4.710
  112BF4      B10056   1.110   1.094   0.461
  112BF4      F10057   1.119   0.984   0.359
  112BF4      F10058   1.022   1.204   0.409
  112BF4      F10059   1.053   1.039   0.588
  112BF4      F10060   1.248   1.148   0.487
  113BF4      B10061   0.471   2.697   4.723
  113BF4      F10062   0.469   2.611   4.846
  113BF4      F10063   0.574   2.644   4.627
  113BF4      F10064   0.336   2.694   4.658
  113BF4      F10065   0.506   2.838   4.760
  114BF4      B10066   1.170   2.299   2.315
  114BF4      F10067   1.206   2.235   2.185
  114BF4      F10068   1.021   2.316   2.323
  114BF4      F10069   1.216   2.213   2.429
  114BF4      F10070   1.236   2.434   2.325
  115BF4      B10071   0.716   2.878   0.808
  115BF4      F10072   0.740   3.025   0.827
  115BF4      F10073   0.784   2.832   0.683
  115BF4      F10074   0.770   2.803   0.925
  115BF4      F10075   0.568   2.854   0.796
  116BF4      B10076   3.923   0.802   2.669
  116BF4      F10077   3.977   0.941   2.659
  116BF4      F10078   3.894   0.770   2.813
  116BF4      F10079   3.797   0.790   2.589
  116BF4      F10080   4.025   0.705   2.616
  117BF4      B10081   4.319   2.774   1.268
  117BF4      F10082   4.258   2.729   1.139
  117BF4      F10083   4.453   2.708   1.285
  117BF4      F10084   4.337   2.923   1.267
  117BF4      F10085   4.230   2.735   1.382
  118BF4      B10086   4.765   3.408   4.337
  118BF4      F10087   4.654   3.307   4.345
  118BF4      F10088   4.897   3.339   4.353
  118BF4      F10089   4.761   3.477   4.204
  118BF4      F10090   4.748   3.509   4.446
  119BF4      B10091   0.310   2.281   2.098
  119BF4      F10092   0.427   2.240   2.183
  119BF4      F10093   0.280   2.172   1.999
  119BF4      F10094   0.190   2.305   2.184
  119BF4      F10095   0.345   2.407   2.024
  120BF4      B10096   1.174   3.855   2.261
  120BF4      F10097   1.321   3.866   2.233
  120BF4      F10098   1.150   3.737   2.351
  120BF4      F10099   1.126   3.980   2.327
  120BF4      F10100   1.101   3.835   2.131
  121BF4      B10101   1.828   1.085   3.131
  121BF4      F10102   1.778   0.947   3.101
  121BF4      F10103   1.725   1.158   3.212
  121BF4      F10104   1.956   1.077   3.209
  121BF4      F10105   1.852   1.158   3.003
  122BF4      B10106   4.751   2.707   3.032
  122BF4      F10107   4.639   2.806   3.048
  122BF4      F10108   4.882   2.780   3.035
  122BF4      F10109   4.747   2.608   3.145
  122BF4      F10110   4.737   2.635   2.902
  123BF4      B10111   5.019   4.195   2.629
  123BF4      F10112   5.159   4.225   2.674
  123BF4      F10113   5.023   4.114   2.503
  123BF4      F10114   4.948   4.117   2.736
  123BF4      F10115   4.946   4.323   2.604
  124BF4      B10116   3.764   4.989   1.058
  124BF4      F10117   3.699   5.097   0.976
  124BF4      F10118   3.662   4.885   1.094
  124BF4      F10119   3.874   4.925   0.979
  124BF4      F10120   3.820   5.049   1.183
  125BF4      B10121   3.864   1.794   3.867
  125BF4      F10122   3.811   1.924   3.814
  125BF4      F10123   4.010   1.783   3.834
  125BF4      F10124   3.847   1.790   4.016
  125BF4      F10125   3.790   1.680   3.805
  126BF4      B10126   0.972   3.305   0.256
  126BF4      F10127   0.995   3.393   0.137
  126BF4      F10128   0.877   3.195   0.220
  126BF4      F10129   1.102   3.247   0.302
  126BF4      F10130   0.913   3.388   0.367
  127BF4      B10131   4.641   2.692   3.382
  127BF4      F10132   4.553   2.654   3.266
  127BF4      F10133   4.778   2.637   3.361
  127BF4      F10134   4.648   2.842   3.391
  127BF4      F10135   4.583   2.637   3.509
  128BF4      B10136   2.321   4.166   1.628
  128BF4      F10137   2.184   4.222   1.657
  128BF4      F10138   2.313   4.016   1.622
  128BF4      F10139   2.370   4.218   1.497
  128BF4      F10140   2.415   4.207   1.737
  129BF4      B10141   1.864   1.507   4.371
  129BF4      F10142   1.794   1.489   4.239
  129BF4      F10143   2.012   1.489   4.352
  129BF4      F10144   1.837   1.646   4.423
  129BF4      F10145   1.813   1.406   4.469
  130BF4      B10146   0.281   1.240   2.730
  130BF4      F10147   0.364   1.119   2.764
  130BF4      F10148   0.161   1.245   2.820
  130BF4      F10149   0.363   1.364   2.749
  130BF4      F10150   0.236   1.230   2.587
  131BF4      B10151   4.546   1.904   4.434
  131BF4      F10152   4.619   1.890   4.303
  131BF4      F10153   4.402   1.863   4.415
  131BF4      F10154   4.609   1.816   4.537
  131BF4      F10155   4.551   2.047   4.479
  132BF4      B10156   0.810   1.996   4.860
  132BF4      F10157   0.839   1.867   4.930
  132BF4      F10158   0.714   1.971   4.748
  132BF4      F10159   0.750   2.093   4.957
  132BF4      F10160   0.938   2.052   4.805
  133BF4      B10161   4.314   3.253   3.463
  133BF4      F10162   4.380   3.138   3.394
  133BF4      F10163   4.268   3.210   3.600
  133BF4      F10164   4.412   3.366   3.477
  133BF4      F10165   4.196   3.298   3.383
  134BF4      B10166   1.845   1.583   0.771
  134BF4      F10167   1.981   1.522   0.779
  134BF4      F10168   1.857   1.731   0.754
  134BF4      F10169   1.771   1.525   0.654
  134BF4      F10170   1.769   1.553   0.898
  135BF4      B10171   4.808   3.623   0.779
  135BF4      F10172   4.751   3.675   0.907
  135BF4      F10173   4.700   3.621   0.674
  135BF4      F10174   4.920   3.712   0.734
  135BF4      F10175   4.859   3.484   0.800
  136BF4      B10176   0.248   4.495   1.035
  136BF4      F10177   0.398   4.498   1.049
  136BF4      F10178   0.205   4.355   1.002
  136BF4      F10179   0.185   4.538   1.164
  136BF4      F10180   0.206   4.588   0.925
  137BF4      B10181   4.982   3.190   2.860
  137BF4      F10182   4.986   3.044   2.894
  137BF4      F10183   5.121   3.240   2.835
  137BF4      F10184   4.898   3.211   2.737
  137BF4      F10185   4.921   3.266   2.975
  138BF4      B10186   2.084   3.120   2.796
  138BF4      F10187   2.185   3.010   2.806
  138BF4      F10188   1.946   3.062   2.795
  138BF4      F10189   2.098   3.212   2.913
  138BF4      F10190   2.107   3.197   2.669
  139BF4      B10191   3.786   1.840   0.199
  139BF4      F10192   3.637   1.835   0.181
  139BF4      F10193   3.832   1.983   0.202
  139BF4      F10194   3.823   1.773   0.328
  139BF4      F10195   3.852   1.768   0.085
  140BF4      B10196   2.623   2.128   4.141
  140BF4      F10197   2.646   2.008   4.055
  140BF4      F10198   2.623   2.086   4.286
  140BF4      F10199   2.733   2.227   4.118
  140BF4      F10200   2.492   2.191   4.107
  141BF4      B10201   2.813   2.456   1.571
  141BF4      F10202   2.865   2.316   1.562
  141BF4      F10203   2.740   2.474   1.701
  141BF4      F10204   2.928   2.553   1.565
  141BF4      F10205   2.720   2.482   1.457
  142BF4      B10206   1.292   2.824   4.742
  142BF4      F10207   1.433   2.786   4.776
  142BF4      F10208   1.201   2.711   4.778
  142BF4      F10209   1.253   2.946   4.820
  142BF4      F10210   1.281   2.852   4.596
  143BF4      B10211   1.481   4.200   0.370
  143BF4      F10212   1.472   4.343   0.325
  143BF4      F10213   1.596   4.185   0.465
  143BF4      F10214   1.354   4.160   0.438
  143BF4      F10215   1.504   4.112   0.250
  144BF4      B10216   4.726   3.690   1.697
  144BF4      F10217   4.709   3.616   1.827
  144BF4      F10218   4.652   3.618   1.588
  144BF4      F10219   4.672   3.829   1.711
  144BF4      F10220   4.872   3.697   1.663
  145BF4      B10221   1.399   0.314   2.499
  145BF4      F10222   1.252   0.299   2.469
  145BF4      F10223   1.440   0.213   2.601
  145BF4      F10224   1.477   0.293   2.373
  145BF4      F10225   1.425   0.452   2.552
  146BF4      B10226   1.423   1.502   1.607
  146BF4      F10227   1.456   1.642   1.651
  146BF4      F10228   1.351   1.431   1.718
  146BF4      F10229   1.335   1.507   1.486
  146BF4      F10230   1.550   1.429   1.575
  147BF4      B10231   4.320   2.811   3.312
  147BF4      F10232   4.309   2.959   3.288
  147BF4      F10233   4.436   2.784   3.403
  147BF4      F10234   4.194   2.761   3.376
  147BF4      F10235   4.341   2.740   3.181
  148BF4      B10236   3.867   4.964   0.604
  148BF4      F10237   3.830   5.069   0.503
  148BF4      F10238   3.788   4.840   0.577
  148BF4      F10239   4.013   4.934   0.593
  148BF4      F10240   3.836   5.015   0.741
  149BF4      B10241   1.695   3.577   3.155
  149BF4      F10242   1.625   3.447   3.181
  149BF4      F10243   1.655   3.629   3.020
  149BF4      F10244   1.658   3.676   3.260
  149BF4      F10245   1.844   3.554   3.157
  150BF4      B10246   4.491   4.595   1.300
  150BF4      F10247   4.354   4.643   1.337
  150BF4      F10248   4.505   4.595   1.150
  150BF4      F10249   4.594   4.686   1.359
  150BF4      F10250   4.511   4.456   1.352
  151BF4      B10251   3.953   2.109   3.993
  151BF4      F10252   4.082   2.186   3.993
  151BF4      F10253   3.983   1.962   3.990
  151BF4      F10254   3.875   2.142   4.117
  151BF4      F10255   3.872   2.146   3.872
  152BF4      B10256   4.978   2.424   1.241
  152BF4      F10257   5.066   2.335   1.160
  152BF4      F10258   4.839   2.423   1.184
  152BF4      F10259   4.974   2.375   1.383
  152BF4      F10260   5.031   2.564   1.238
  153BF4      B10261   1.541   0.389   3.598
  153BF4      F10262   1.449   0.503   3.629
  153BF4      F10263   1.569   0.386   3.450
  153BF4      F10264   1.670   0.406   3.672
  153BF4      F10265   1.477   0.260   3.640
  154BF4      B10266   0.195   4.782   2.892
  154BF4      F10267   0.337   4.777   2.940
  154BF4      F10268   0.190   4.753   2.745
  154BF4      F10269   0.114   4.679   2.966
  154BF4      F10270   0.139   4.918   2.918
  155BF4      B10271   2.070   4.901   3.118
  155BF4      F10272   2.152   4.964   3.226
  155BF4      F10273   2.128   4.936   2.984
  155BF4      F10274   2.070   4.752   3.135
  155BF4      F10275   1.929   4.953   3.126
  156BF4      B10276   3.567   1.307   1.139
  156BF4      F10277   3.434   1.241   1.163
  156BF4      F10278   3.592   1.316   0.992
  156BF4      F10279   3.566   1.444   1.198
  156BF4      F10280   3.675   1.225   1.204
  157BF4      B10281   1.667   0.846   1.832
  157BF4      F10282   1.757   0.728   1.809
  157BF4      F10283   1.632   0.909   1.700
  157BF4      F10284   1.541   0.800   1.900
  157BF4      F10285   1.737   0.946   1.919
  158BF4      B10286   4.404   3.022   2.608
  158BF4      F10287   4.418   3.010   2.459
  158BF4      F10288   4.518   2.951   2.675
  158BF4      F10289   4.404   3.167   2.647
  158BF4      F10290   4.274   2.959   2.651
  159BF4      B10291   4.988   4.333   2.060
  159BF4      F10292   5.016   4.186   2.050
  159BF4      F10293   5.118   4.408   2.056
  159BF4      F10294   4.902   4.376   1.945
  159BF4      F10295   4.917   4.362   2.189
  160BF4      B10296   1.769   1.148   2.183
  160BF4      F10297   1.700   1.264   2.248
  160BF4      F10298   1.722   1.020   2.244
  160BF4      F10299   1.738   1.148   2.036
  160BF4      F10300   1.917   1.161   2.202
  161BF4      B10301   4.282   0.731   2.417
  161BF4      F10302   4.395   0.643   2.374
  161BF4      F10303   4.235   0.688   2.553
  161BF4      F10304   4.328   0.873   2.422
  161BF4      F10305   4.169   0.718   2.319
  162BF4      B10306   4.663   0.924   0.759
  162BF4      F10307   4.743   1.023   0.839
  162BF4      F10308   4.628   0.807   0.846
  162BF4      F10309   4.538   0.989   0.710
  162BF4      F10310   4.745   0.877   0.642
  163BF4      B10311   4.336   0.461   3.932
  163BF4      F10312   4.219   0.399   3.861
  163BF4      F10313   4.443   0.495   3.833
  163BF4      F10314   4.292   0.586   4.002
  163BF4      F10315   4.390   0.365   4.033
  164BF4      B10316   0.380   4.958   3.105
  164BF4      F10317   0.503   4.881   3.066
  164BF4      F10318   0.268   4.863   3.133
  164BF4      F10319   0.409   5.039   3.227
  164BF4      F10320   0.341   5.050   2.992
  165BF4      B10321   2.612   0.543   2.435
  165BF4      F10322   2.716   0.623   2.506
  165BF4      F10323   2.583   0.606   2.302
  165BF4      F10324   2.661   0.403   2.414
  165BF4      F10325   2.486   0.540   2.517
  166BF4      B10326   3.378   2.004   0.794
  166BF4      F10327   3.332   2.060   0.925
  166BF4      F10328   3.261   1.991   0.701
  166BF4      F10329   3.480   2.096   0.734
  166BF4      F10330   3.440   1.869   0.817
  167BF4      B10331   4.908   1.634   3.523
  167BF4      F10332   5.054   1.615   3.495
  167BF4      F10333   4.830   1.521   3.463
  167BF4      F10334   4.886   1.637   3.671
  167BF4      F10335   4.862   1.764   3.463
  168BF4      B10336   3.696   2.374   0.594
  168BF4      F10337   3.607   2.299   0.499
  168BF4      F10338   3.629   2.501   0.636
  168BF4      F10339   3.722   2.289   0.715
  168BF4      F10340   3.827   2.405   0.526
  169BF4      B10341   2.055   1.228   1.084
  169BF4      F10342   2.104   1.086   1.074
  169BF4      F10343   2.167   1.322   1.050
  169BF4      F10344   1.942   1.248   0.987
  169BF4      F10345   2.007   1.255   1.223
  170BF4      B10346   1.419   4.950   4.348
  170BF4      F10347   1.520   4.901   4.448
  170BF4      F10348   1.290   4.876   4.368
  170BF4      F10349   1.396   5.097   4.367
  170BF4      F10350   1.470   4.924   4.209
  171BF4      B10351   2.328   1.225   2.257
  171BF4      F10352   2.242   1.104   2.281
  171BF4      F10353   2.242   1.347   2.250
  171BF4      F10354   2.427   1.239   2.369
  171BF4      F10355   2.402   1.209   2.127
  172BF4      B10356   2.574   1.157   4.899
  172BF4      F10357   2.518   1.043   4.819
  172BF4      F10358   2.571   1.122   5.045
  172BF4      F10359   2.716   1.183   4.857
  172BF4      F10360   2.492   1.280   4.875
  173BF4      B10361   3.685   4.880   3.507
  173BF4      F10362   3.696   4.904   3.654
  173BF4      F10363   3.639   5.005   3.439
  173BF4      F10364   3.819   4.840   3.453
  173BF4      F10365   3.587   4.770   3.481
  174BF4      B10366   2.585   2.277   1.790
  174BF4      F10367   2.506   2.150   1.806
  174BF4      F10368   2.695   2.281   1.891
  174BF4      F10369   2.643   2.283   1.652
  174BF4      F10370   2.494   2.395   1.811
  175BF4      B10371   0.422   3.313   4.719
  175BF4      F10372   0.329   3.207   4.668
  175BF4      F10373   0.377   3.447   4.670
  175BF4      F10374   0.421   3.312   4.869
  175BF4      F10375   0.561   3.286   4.670
  176BF4      B10376   1.423   4.969   5.007
  176BF4      F10377   1.468   5.071   4.907
  176BF4      F10378   1.391   4.841   4.937
  176BF4      F10379   1.532   4.945   5.107
  176BF4      F10380   1.300   5.019   5.078
  177BF4      B10381   1.493   2.067   3.937
  177BF4      F10382   1.443   2.070   4.078
  177BF4      F10383   1.430   2.179   3.859
  177BF4      F10384   1.642   2.084   3.937
  177BF4      F10385   1.458   1.936   3.874
  178BF4      B10386   1.821   2.359   2.694
  178BF4      F10387   1.714   2.400   2.598
  178BF4      F10388   1.953   2.352   2.622
  178BF4      F10389   1.831   2.459   2.805
  178BF4      F10390   1.788   2.224   2.751
  179BF4      B10391   0.720   0.180   3.012
  179BF4      F10392   0.725   0.326   3.043
  179BF4      F10393   0.755   0.158   2.868
  179BF4      F10394   0.817   0.106   3.099
  179BF4      F10395   0.581   0.129   3.038
  180BF4      B10396   2.511   0.888   2.266
  180BF4      F10397   2.543   0.807   2.144
  180BF4      F10398   2.588   1.017   2.263
  180BF4      F10399   2.364   0.918   2.270
  180BF4      F10400   2.550   0.810   2.389
  181BF4      B10401   4.207   0.942   5.015
  181BF4      F10402   4.299   0.892   5.123
  181BF4      F10403   4.065   0.908   5.050
  181BF4      F10404   4.222   1.090   5.002
  181BF4      F10405   4.244   0.876   4.885
  182BF4      B10406   4.698   1.078   1.436
  182BF4      F10407   4.714   1.182   1.329
  182BF4      F10408   4.571   1.001   1.412
  182BF4      F10409   4.815   0.985   1.433
  182BF4      F10410   4.690   1.145   1.570
  183BF4      B10411   0.279   0.132   1.151
  183BF4      F10412   0.169   0.051   1.089
  183BF4      F10413   0.380   0.168   1.046
  183BF4      F10414   0.222   0.257   1.211
  183BF4      F10415   0.345   0.051   1.259
  184BF4      B10416   3.314   4.631   4.167
  184BF4      F10417   3.239   4.501   4.180
  184BF4      F10418   3.219   4.745   4.184
  184BF4      F10419   3.420   4.638   4.273
  184BF4      F10420   3.378   4.638   4.032
  185BF4      B10421   4.694   5.011   4.481
  185BF4      F10422   4.816   5.096   4.468
  185BF4      F10423   4.571   5.096   4.465
  185BF4      F10424   4.695   4.905   4.375
  185BF4      F10425   4.692   4.946   4.616
  186BF4      B10426   4.252   1.173   0.652
  186BF4      F10427   4.200   1.142   0.789
  186BF4      F10428   4.358   1.073   0.615
  186BF4      F10429   4.140   1.166   0.553
  186BF4      F10430   4.311   1.311   0.651
  187BF4      B10431   4.201   4.186   1.799
  187BF4      F10432   4.099   4.287   1.755
  187BF4      F10433   4.132   4.055   1.826
  187BF4      F10434   4.303   4.167   1.690
  187BF4      F10435   4.269   4.234   1.923
  188BF4      B10436   2.442   0.129   2.377
  188BF4      F10437   2.473   0.061   2.507
  188BF4      F10438   2.306   0.086   2.329
  188BF4      F10439   2.443   0.278   2.397
  188BF4      F10440   2.545   0.091   2.275
  189BF4      B10441   5.055   3.240   2.427
  189BF4      F10442   4.928   3.257   2.350
  189BF4      F10443   5.159   3.334   2.373
  189BF4      F10444   5.031   3.270   2.572
  189BF4      F10445   5.104   3.099   2.412
  190BF4      B10446   3.617   0.169   1.886
  190BF4      F10447   3.526   0.081   1.805
  190BF4      F10448   3.616   0.308   1.830
  190BF4      F10449   3.570   0.172   2.029
  190BF4      F10450   3.757   0.113   1.881
  191BF4      B10451   1.427   4.657   1.496
  191BF4      F10452   1.313   4.720   1.570
  191BF4      F10453   1.555   4.726   1.534
  191BF4      F10454   1.436   4.512   1.533
  191BF4      F10455   1.405   4.670   1.349
  192BF4      B10456   1.382   4.165   0.774
  192BF4      F10457   1.445   4.148   0.638
  192BF4      F10458   1.451   4.277   0.847
  192BF4      F10459   1.237   4.198   0.758
  192BF4      F10460   1.397   4.038   0.851
  193BF4      B10461   3.056   0.520   3.927
  193BF4      F10462   2.956   0.590   4.014
  193BF4      F10463   3.057   0.584   3.792
  193BF4      F10464   3.192   0.531   3.989
  193BF4      F10465   3.019   0.375   3.914
  194BF4      B10466   4.555   1.469   3.718
  194BF4      F10467   4.699   1.428   3.731
  194BF4      F10468   4.475   1.353   3.665
  194BF4      F10469   4.502   1.508   3.853
  194BF4      F10470   4.544   1.585   3.624
  195BF4      B10471   1.342   2.070   0.428
  195BF4      F10472   1.286   2.060   0.289
  195BF4      F10473   1.464   1.983   0.438
  195BF4      F10474   1.380   2.212   0.457
  195BF4      F10475   1.239   2.024   0.526
  196BF4      B10476   2.967   0.742   4.545
  196BF4      F10477   3.017   0.862   4.620
  196BF4      F10478   2.854   0.679   4.621
  196BF4      F10479   2.920   0.783   4.409
  196BF4      F10480   3.079   0.642   4.531
  197BF4      B10481   1.530   3.980   3.464
  197BF4      F10482   1.449   3.898   3.369
  197BF4      F10483   1.488   4.123   3.456
  197BF4      F10484   1.509   3.929   3.604
  197BF4      F10485   1.675   3.968   3.428
  198BF4      B10486   4.105   2.013   2.707
  198BF4      F10487   4.076   1.867   2.724
  198BF4      F10488   3.976   2.089   2.700
  198BF4      F10489   4.186   2.062   2.823
  198BF4      F10490   4.182   2.034   2.580
  199BF4      B10491   4.451   4.334   4.893
  199BF4      F10492   4.543   4.264   4.798
  199BF4      F10493   4.421   4.472   4.842
  199BF4      F10494   4.322   4.256   4.905
  199BF4      F10495   4.515   4.343   5.028
  200BF4      B10496   1.894   0.225   2.151
  200BF4      F10497   2.018   0.305   2.174
  200BF4      F10498   1.784   0.275   2.240
  200BF4      F10499   1.852   0.238   2.007
  200BF4      F10500   1.921   0.080   2.181
  201BF4      B10501   3.383   1.532   2.537
  201BF4      F10502   3.511   1.610   2.533
  201BF4      F10503   3.350   1.484   2.399
  201BF4      F10504   3.398   1.415   2.629
  201BF4      F10505   3.272   1.621   2.586
  202BF4      B10506   3.073   2.963   4.415
  202BF4      F10507   3.029   3.103   4.382
  202BF4      F10508   2.952   2.880   4.447
  202BF4      F10509   3.144   2.904   4.297
  202BF4      F10510   3.165   2.966   4.533
  203BF4      B10511   1.699   3.416   1.317
  203BF4      F10512   1.777   3.298   1.369
  203BF4      F10513   1.585   3.367   1.233
  203BF4      F10514   1.646   3.496   1.432
  203BF4      F10515   1.789   3.502   1.234
  204BF4      B10516   1.130   1.410   2.650
  204BF4      F10517   1.270   1.460   2.629
  204BF4      F10518   1.094   1.422   2.795
  204BF4      F10519   1.034   1.491   2.568
  204BF4      F10520   1.122   1.266   2.609
  205BF4      B10521   3.233   3.307   4.845
  205BF4      F10522   3.094   3.289   4.898
  205BF4      F10523   3.253   3.450   4.804
  205BF4      F10524   3.332   3.271   4.952
  205BF4      F10525   3.253   3.217   4.727
  206BF4      B10526   2.157   1.870   0.316
  206BF4      F10527   2.187   1.978   0.217
  206BF4      F10528   2.057   1.919   0.416
  206BF4      F10529   2.101   1.750   0.244
  206BF4      F10530   2.283   1.831   0.387
  207BF4      B10531   2.679   3.368   0.382
  207BF4      F10532   2.706   3.512   0.416
  207BF4      F10533   2.761   3.329   0.263
  207BF4      F10534   2.715   3.281   0.498
  207BF4      F10535   2.533   3.351   0.350
  208BF4      B10536   2.313   0.470   0.627
  208BF4      F10537   2.345   0.562   0.741
  208BF4      F10538   2.171   0.423   0.639
  208BF4      F10539   2.331   0.542   0.497
  208BF4      F10540   2.405   0.351   0.631
  209BF4      B10541   2.211   4.605   2.220
  209BF4      F10542   2.069   4.654   2.217
  209BF4      F10543   2.213   4.455   2.211
  209BF4      F10544   2.286   4.663   2.103
  209BF4      F10545   2.276   4.648   2.347
  210BF4      B10546   1.007   2.644   3.692
  210BF4      F10547   1.139   2.636   3.763
  210BF4      F10548   0.900   2.588   3.781
  210BF4      F10549   0.976   2.787   3.660
  210BF4      F10550   1.014   2.563   3.566
  211BF4      B10551   1.667   1.246   1.727
  211BF4      F10552   1.742   1.289   1.604
  211BF4      F10553   1.731   1.122   1.784
  211BF4      F10554   1.670   1.355   1.829
  211BF4      F10555   1.525   1.215   1.690
  212BF4      B10556   3.283   1.615   3.088
  212BF4      F10557   3.163   1.659   3.009
  212BF4      F10558   3.391   1.571   2.994
  212BF4      F10559   3.333   1.729   3.171
  212BF4      F10560   3.246   1.501   3.177
  213BF4      B10561   3.937   4.093   0.758
  213BF4      F10562   4.071   4.064   0.697
  213BF4      F10563   3.951   4.104   0.907
  213BF4      F10564   3.883   4.222   0.704
  213BF4      F10565   3.842   3.982   0.725
  214BF4      B10566   2.282   0.746   2.160
  214BF4      F10567   2.388   0.697   2.254
  214BF4      F10568   2.342   0.844   2.064
  214BF4      F10569   2.225   0.630   2.085
  214BF4      F10570   2.173   0.813   2.239
  215BF4      B10571   2.176   4.864   4.378
  215BF4      F10572   2.085   4.981   4.399
  215BF4      F10573   2.313   4.898   4.427
  215BF4      F10574   2.124   4.746   4.455
  215BF4      F10575   2.182   4.830   4.232
  216BF4      B10576   4.323   3.172   1.344
  216BF4      F10577   4.199   3.088   1.345
  216BF4      F10578   4.285   3.317   1.353
  216BF4      F10579   4.409   3.135   1.461
  216BF4      F10580   4.398   3.148   1.216
  217BF4      B10581   0.555   0.537   1.359
  217BF4      F10582   0.566   0.666   1.436
  217BF4      F10583   0.430   0.540   1.275
  217BF4      F10584   0.675   0.522   1.270
  217BF4      F10585   0.549   0.422   1.455
  218BF4      B10586   1.014   3.042   0.450
  218BF4      F10587   1.072   3.029   0.312
  218BF4      F10588   1.112   2.988   0.550
  218BF4      F10589   0.987   3.187   0.480
  218BF4      F10590   0.886   2.965   0.458
  219BF4      B10591   2.463   2.659   4.339
  219BF4      F10592   2.558   2.543   4.344
  219BF4      F10593   2.322   2.608   4.343
  219BF4      F10594   2.487   2.749   4.457
  219BF4      F10595   2.485   2.736   4.213
  220BF4      B10596   2.768   1.466   0.325
  220BF4      F10597   2.787   1.613   0.345
  220BF4      F10598   2.625   1.439   0.284
  220BF4      F10599   2.860   1.417   0.217
  220BF4      F10600   2.797   1.393   0.452
  221BF4      B10601   0.643   3.609   0.533
  221BF4      F10602   0.498   3.570   0.543
  221BF4      F10603   0.653   3.758   0.516
  221BF4      F10604   0.715   3.567   0.657
  221BF4      F10605   0.704   3.541   0.414
  222BF4      B10606   3.950   3.414   2.368
  222BF4      F10607   4.073   3.330   2.352
  222BF4      F10608   3.973   3.518   2.474
  222BF4      F10609   3.919   3.482   2.238
  222BF4      F10610   3.834   3.327   2.408
  223BF4      B10611   2.194   2.974   3.474
  223BF4      F10612   2.245   3.100   3.409
  223BF4      F10613   2.150   2.878   3.367
  223BF4      F10614   2.304   2.912   3.554
  223BF4      F10615   2.079   3.007   3.563
  224BF4      B10616   4.090   3.990   1.590
  224BF4      F10617   4.078   3.929   1.454
  224BF4      F10618   4.203   3.925   1.664
  224BF4      F10619   4.116   4.137   1.578
  224BF4      F10620   3.962   3.968   1.666
  225BF4      B10621   1.355   2.311   3.525
  225BF4      F10622   1.382   2.456   3.500
  225BF4      F10623   1.207   2.285   3.512
  225BF4      F10624   1.429   2.228   3.425
  225BF4      F10625   1.400   2.275   3.664
  226BF4      B10626   4.273   2.037   3.503
  226BF4      F10627   4.268   2.134   3.389
  226BF4      F10628   4.400   1.957   3.495
  226BF4      F10629   4.270   2.113   3.633
  226BF4      F10630   4.155   1.945   3.495
  227BF4      B10631   0.873   1.467   3.524
  227BF4      F10632   0.909   1.435   3.382
  227BF4      F10633   0.998   1.474   3.606
  227BF4      F10634   0.802   1.598   3.529
  227BF4      F10635   0.784   1.359   3.578
  228BF4      B10636   4.629   3.017   1.077
  228BF4      F10637   4.746   2.923   1.070
  228BF4      F10638   4.679   3.158   1.076
  228BF4      F10639   4.540   2.994   0.959
  228BF4      F10640   4.553   2.992   1.203
  229BF4      B10641   3.151   4.740   3.657
  229BF4      F10642   3.280   4.779   3.723
  229BF4      F10643   3.107   4.849   3.564
  229BF4      F10644   3.171   4.613   3.578
  229BF4      F10645   3.046   4.718   3.761
  230BF4      B10646   3.727   4.081   0.199
  230BF4      F10647   3.779   4.222   0.188
  230BF4      F10648   3.811   3.990   0.115
  230BF4      F10649   3.733   4.037   0.342
  230BF4      F10650   3.585   4.077   0.152
  231BF4      B10651   2.935   0.532   2.911
  231BF4      F10652   2.868   0.421   2.836
  231BF4      F10653   2.864   0.555   3.041
  231BF4      F10654   3.078   0.494   2.938
  231BF4      F10655   2.932   0.657   2.829
  232BF4      B10656   2.112   1.076   2.818
  232BF4      F10657   2.229   1.169   2.804
  232BF4      F10658   1.985   1.154   2.815
  232BF4      F10659   2.114   0.977   2.705
  232BF4      F10660   2.122   1.002   2.948
  233BF4      B10661   2.866   0.321   4.126
  233BF4      F10662   2.866   0.176   4.166
  233BF4      F10663   3.005   0.375   4.134
  233BF4      F10664   2.815   0.334   3.986
  233BF4      F10665   2.776   0.398   4.219
  234BF4      B10666   3.204   3.139   3.061
  234BF4      F10667   3.269   3.014   3.113
  234BF4      F10668   3.288   3.197   2.951
  234BF4      F10669   3.068   3.106   3.008
  234BF4      F10670   3.191   3.239   3.172
  235BF4      B10671   4.238   1.537   0.779
  235BF4      F10672   4.292   1.668   0.827
  235BF4      F10673   4.318   1.425   0.839
  235BF4      F10674   4.095   1.523   0.820
  235BF4      F10675   4.248   1.530   0.629
  236BF4      B10676   0.612   1.231   1.617
  236BF4      F10677   0.498   1.326   1.643
  236BF4      F10678   0.611   1.124   1.721
  236BF4      F10679   0.596   1.170   1.482
  236BF4      F10680   0.741   1.306   1.623
  237BF4      B10681   0.681   0.388   2.544
  237BF4      F10682   0.591   0.492   2.485
  237BF4      F10683   0.823   0.416   2.504
  237BF4      F10684   0.670   0.391   2.694
  237BF4      F10685   0.640   0.252   2.494
  238BF4      B10686   2.033   3.059   4.132
  238BF4      F10687   2.138   3.159   4.097
  238BF4      F10688   1.897   3.117   4.104
  238BF4      F10689   2.052   2.935   4.050
  238BF4      F10690   2.043   3.024   4.278
  239BF4      B10691   0.265   0.826   1.419
  239BF4      F10692   0.146   0.735   1.421
  239BF4      F10693   0.233   0.949   1.340
  239BF4      F10694   0.301   0.864   1.560
  239BF4      F10695   0.381   0.754   1.356
  240BF4      B10696   2.986   3.334   0.388
  240BF4      F10697   2.927   3.199   0.419
  240BF4      F10698   3.129   3.337   0.432
  240BF4      F10699   2.978   3.359   0.241
  240BF4      F10700   2.909   3.440   0.461
  241BF4      B10701   2.672   3.468   4.541
  241BF4      F10702   2.749   3.531   4.429
  241BF4      F10703   2.760   3.372   4.614
  241BF4      F10704   2.625   3.575   4.636
  241BF4      F10705   2.553   3.396   4.485
  242BF4      B10706   4.942   3.744   2.623
  242BF4      F10707   5.072   3.786   2.561
  242BF4      F10708   4.852   3.687   2.518
  242BF4      F10709   4.969   3.641   2.729
  242BF4      F10710   4.877   3.864   2.686
  243BF4      B10711   4.362   4.574   1.969
  243BF4      F10712   4.372   4.425   1.960
  243BF4      F10713   4.237   4.620   1.899
  243BF4      F10714   4.356   4.616   2.113
  243BF4      F10715   4.482   4.637   1.904
  244BF4      B10716   4.389   0.725   1.327
  244BF4      F10717   4.395   0.627   1.440
  244BF4      F10718   4.310   0.668   1.214
  244BF4      F10719   4.324   0.852   1.375
  244BF4      F10720   4.528   0.756   1.280
  245BF4      B10721   3.167   1.342   1.405
  245BF4      F10722   3.274   1.374   1.505
  245BF4      F10723   3.083   1.230   1.457
  245BF4      F10724   3.081   1.463   1.383
  245BF4      F10725   3.230   1.301   1.275
  246BF4      B10726   3.448   2.342   4.341
  246BF4      F10727   3.534   2.465   4.349
  246BF4      F10728   3.305   2.379   4.366
  246BF4      F10729   3.460   2.282   4.204
  246BF4      F10730   3.493   2.243   4.443
  247BF4      B10731   1.501   4.225   4.930
  247BF4      F10732   1.640   4.260   4.976
  247BF4      F10733   1.458   4.097   4.995
  247BF4      F10734   1.406   4.335   4.968
  247BF4      F10735   1.501   4.208   4.781
  248BF4      B10736   3.966   4.471   0.648
  248BF4      F10737   3.912   4.375   0.547
  248BF4      F10738   3.867   4.582   0.670
  248BF4      F10739   3.990   4.400   0.778
  248BF4      F10740   4.095   4.529   0.598
  249BF4      B10741   2.846   1.186   4.620
  249BF4      F10742   2.854   1.038   4.642
  249BF4      F10743   2.702   1.228   4.619
  249BF4      F10744   2.918   1.257   4.731
  249BF4      F10745   2.909   1.221   4.489
  250BF4      B10746   3.615   0.712   1.443
  250BF4      F10747   3.563   0.600   1.358
  250BF4      F10748   3.696   0.655   1.557
  250BF4      F10749   3.702   0.802   1.360
  250BF4      F10750   3.500   0.791   1.498
  251BF4      B10751   0.591   2.289   4.915
  251BF4      F10752   0.698   2.339   4.822
  251BF4      F10753   0.642   2.290   5.056
  251BF4      F10754   0.470   2.377   4.905
  251BF4      F10755   0.553   2.149   4.876
  252BF4      B10756   3.075   4.711   1.717
  252BF4      F10757   3.203   4.668   1.653
  252BF4      F10758   3.000   4.589   1.764
  252BF4      F10759   3.104   4.800   1.834
  252BF4      F10760   2.991   4.785   1.617
  253BF4      B10761   1.766   0.345   4.361
  253BF4      F10762   1.876   0.427   4.422
  253BF4      F10763   1.670   0.436   4.290
  253BF4      F10764   1.824   0.247   4.264
  253BF4      F10765   1.693   0.271   4.470
  254BF4      B10766   5.039   2.606   0.773
  254BF4      F10767   5.135   2.514   0.842
  254BF4      F10768   4.954   2.526   0.678
  254BF4      F10769   4.951   2.673   0.874
  254BF4      F10770   5.115   2.709   0.696
  255BF4      B10771   1.716   3.068   2.103
  255BF4      F10772   1.705   3.192   2.018
  255BF4      F10773   1.581   3.003   2.114
  255BF4      F10774   1.812   2.973   2.040
  255BF4      F10775   1.765   3.106   2.240
  256BF4      B10776   0.204   3.596   1.450
  256BF4      F10777   0.330   3.677   1.442
  256BF4      F10778   0.136   3.597   1.316
  256BF4      F10779   0.238   3.455   1.487
  256BF4      F10780   0.113   3.655   1.553
  257BF4      B10781   5.011   4.905   1.569
  257BF4      F10782   4.873   4.917   1.511
  257BF4      F10783   5.022   4.994   1.689
  257BF4      F10784   5.036   4.763   1.610
  257BF4      F10785   5.113   4.947   1.467
  258BF4      B10786   1.926   2.518   3.888
  258BF4      F10787   1.793   2.578   3.854
  258BF4      F10788   1.988   2.593   4.002
  258BF4      F10789   1.908   2.374   3.927
  258BF4      F10790   2.017   2.526   3.768
  259BF4      B10791   3.304   3.958   2.074
  259BF4      F10792   3.362   4.093   2.047
  259BF4      F10793   3.156   3.960   2.049
  259BF4      F10794   3.369   3.857   1.984
  259BF4      F10795   3.330   3.920   2.217
  260BF4      B10796   0.660   1.272   2.138
  260BF4      F10797   0.580   1.159   2.081
  260BF4      F10798   0.803   1.229   2.156
  260BF4      F10799   0.654   1.390   2.045
  260BF4      F10800   0.603   1.311   2.271
  261BF4      B10801   4.977   1.974   0.451
  261BF4      F10802   5.045   2.094   0.391
  261BF4      F10803   5.018   1.851   0.376
  261BF4      F10804   5.017   1.961   0.595
  261BF4      F10805   4.829   1.992   0.441
  262BF4      B10806   0.969   2.170   0.296
  262BF4      F10807   0.922   2.309   0.326
  262BF4      F10808   0.874   2.104   0.200
  262BF4      F10809   1.106   2.174   0.236
  262BF4      F10810   0.973   2.091   0.424
  263BF4      B10811   2.093   1.861   3.506
  263BF4      F10812   2.208   1.938   3.564
  263BF4      F10813   2.131   1.717   3.494
  263BF4      F10814   1.973   1.874   3.596
  263BF4      F10815   2.060   1.916   3.371
  264BF4      B10816   0.474   4.604   3.538
  264BF4      F10817   0.370   4.712   3.530
  264BF4      F10818   0.408   4.470   3.528
  264BF4      F10819   0.571   4.621   3.425
  264BF4      F10820   0.547   4.615   3.668
  265BF4      B10821   2.234   4.155   4.422
  265BF4      F10822   2.187   4.034   4.497
  265BF4      F10823   2.129   4.197   4.323
  265BF4      F10824   2.259   4.267   4.518
  265BF4      F10825   2.361   4.123   4.349
  266BF4      B10826   0.637   3.226   1.846
  266BF4      F10827   0.769   3.154   1.842
  266BF4      F10828   0.661   3.374   1.843
  266BF4      F10829   0.554   3.186   1.728
  266BF4      F10830   0.565   3.190   1.973
  267BF4      B10831   1.553   2.228   1.175
  267BF4      F10832   1.549   2.337   1.278
  267BF4      F10833   1.694   2.178   1.161
  267BF4      F10834   1.464   2.116   1.216
  267BF4      F10835   1.507   2.283   1.043
  268BF4      B10836   3.968   2.069   0.945
  268BF4      F10837   4.009   1.926   0.963
  268BF4      F10838   3.850   2.075   0.853
  268BF4      F10839   3.931   2.128   1.078
  268BF4      F10840   4.082   2.146   0.886
  269BF4      B10841   0.515   3.003   4.292
  269BF4      F10842   0.662   3.009   4.262
  269BF4      F10843   0.484   2.872   4.360
  269BF4      F10844   0.477   3.116   4.382
  269BF4      F10845   0.438   3.012   4.164
  270BF4      B10846   0.252   3.508   4.301
  270BF4      F10847   0.297   3.383   4.232
  270BF4      F10848   0.148   3.474   4.403
  270BF4      F10849   0.369   3.573   4.369
  270BF4      F10850   0.195   3.603   4.200
  271BF4      B10851   4.831   3.072   5.018
  271BF4      F10852   4.958   2.993   5.006
  271BF4      F10853   4.861   3.205   5.081
  271BF4      F10854   4.772   3.093   4.882
  271BF4      F10855   4.734   2.997   5.103
  272BF4      B10856   5.011   2.144   3.013
  272BF4      F10857   4.939   2.194   3.135
  272BF4      F10858   5.159   2.161   3.032
  272BF4      F10859   4.979   1.999   2.993
  272BF4      F10860   4.966   2.223   2.894
  273BF4      B10861   3.796   4.615   0.177
  273BF4      F10862   3.906   4.713   0.204
  273BF4      F10863   3.681   4.686   0.113
  273BF4      F10864   3.846   4.507   0.085
  273BF4      F10865   3.751   4.553   0.306
  274BF4      B10866   1.038   4.767   2.846
  274BF4      F10867   0.946   4.665   2.905
  274BF4      F10868   0.957   4.870   2.773
  274BF4      F10869   1.116   4.833   2.955
  274BF4      F10870   1.132   4.700   2.750
  275BF4      B10871   1.776   3.409   3.967
  275BF4      F10872   1.920   3.449   3.978
  275BF4      F10873   1.694   3.491   4.063
  275BF4      F10874   1.727   3.433   3.827
  275BF4      F10875   1.762   3.264   4.001
  276BF4      B10876   0.235   3.151   2.539
  276BF4      F10877   0.114   3.062   2.543
  276BF4      F10878   0.191   3.294   2.528
  276BF4      F10879   0.315   3.133   2.664
  276BF4      F10880   0.318   3.116   2.419
  277BF4      B10881   1.450   3.512   2.880
  277BF4      F10882   1.351   3.624   2.900
  277BF4      F10883   1.482   3.451   3.013
  277BF4      F10884   1.390   3.408   2.790
  277BF4      F10885   1.575   3.567   2.818
  278BF4      B10886   3.249   2.175   4.811
  278BF4      F10887   3.204   2.233   4.680
  278BF4      F10888   3.381   2.107   4.793
  278BF4      F10889   3.262   2.285   4.912
  278BF4      F10890   3.148   2.075   4.859
  279BF4      B10891   3.403   4.692   3.389
  279BF4      F10892   3.508   4.585   3.383
  279BF4      F10893   3.276   4.641   3.326
  279BF4      F10894   3.376   4.729   3.531
  279BF4      F10895   3.451   4.813   3.314
  280BF4      B10896   2.449   3.057   0.622
  280BF4      F10897   2.338   3.101   0.712
  280BF4      F10898   2.498   2.922   0.665
  280BF4      F10899   2.400   3.050   0.480
  280BF4      F10900   2.562   3.156   0.630
  281BF4      B10901   0.311   0.694   3.887
  281BF4      F10902   0.276   0.839   3.893
  281BF4      F10903   0.378   0.664   3.757
  281BF4      F10904   0.404   0.660   4.000
  281BF4      F10905   0.186   0.612   3.900
  282BF4      B10906   1.332   0.922   0.653
  282BF4      F10907   1.431   0.812   0.630
  282BF4      F10908   1.405   1.052   0.671
  282BF4      F10909   1.240   0.932   0.535
  282BF4      F10910   1.251   0.892   0.776
  283BF4      B10911   3.419   2.405   3.383
  283BF4      F10912   3.554   2.338   3.382
  283BF4      F10913   3.431   2.540   3.448
  283BF4      F10914   3.370   2.422   3.243
  283BF4      F10915   3.322   2.321   3.461
  284BF4      B10916   0.522   0.234   0.457
  284BF4      F10917   0.572   0.376   0.456
  284BF4      F10918   0.636   0.140   0.432
  284BF4      F10919   0.460   0.204   0.590
  284BF4      F10920   0.419   0.217   0.349
  285BF4      B10921   3.398   1.670   4.040
  285BF4      F10922   3.295   1.734   4.128
  285BF4      F10923   3.353   1.532   4.003
  285BF4      F10924   3.415   1.752   3.915
  285BF4      F10925   3.529   1.663   4.113
  286BF4      B10926   4.337   1.201   1.527
  286BF4      F10927   4.486   1.220   1.538
  286BF4      F10928   4.271   1.335   1.510
  286BF4      F10929   4.307   1.114   1.409
  286BF4      F10930   4.286   1.135   1.652
  287BF4      B10931   1.078   4.154   3.597
  287BF4      F10932   0.949   4.190   3.530
  287BF4      F10933   1.193   4.188   3.507
  287BF4      F10934   1.091   4.231   3.725
  287BF4      F10935   1.080   4.007   3.628
  288BF4      B10936   4.956   3.040   2.084
  288BF4      F10937   4.908   3.171   2.027
  288BF4      F10938   4.848   2.937   2.069
  288BF4      F10939   5.079   2.995   2.010
  288BF4      F10940   4.989   3.058   2.229
  289BF4      B10941   2.373   0.946   0.729
  289BF4      F10942   2.402   0.799   0.735
  289BF4      F10943   2.372   0.990   0.585
  289BF4      F10944   2.239   0.973   0.790
  289BF4      F10945   2.479   1.021   0.803
  290BF4      B10946   2.905   0.362   3.455
  290BF4      F10947   3.005   0.376   3.344
  290BF4      F10948   2.882   0.216   3.483
  290BF4      F10949   2.957   0.429   3.579
  290BF4      F10950   2.775   0.426   3.414
  291BF4      B10951   3.109   4.368   0.475
  291BF4      F10952   3.152   4.363   0.619
  291BF4      F10953   3.013   4.481   0.456
  291BF4      F10954   3.229   4.389   0.388
  291BF4      F10955   3.043   4.239   0.439
  292BF4      B10956   3.140   1.185   2.027
  292BF4      F10957   3.232   1.298   1.992
  292BF4      F10958   3.188   1.118   2.152
  292BF4      F10959   3.001   1.239   2.050
  292BF4      F10960   3.137   1.086   1.914
  293BF4      B10961   2.729   3.517   1.064
  293BF4      F10962   2.617   3.423   1.032
  293BF4      F10963   2.858   3.461   1.011
  293BF4      F10964   2.702   3.650   1.000
  293BF4      F10965   2.739   3.534   1.213
  294BF4      B10966   0.995   3.862   0.454
  294BF4      F10967   1.067   3.993   0.452
  294BF4      F10968   1.093   3.750   0.473
  294BF4      F10969   0.896   3.861   0.566
  294BF4      F10970   0.923   3.842   0.324
  295BF4      B10971   2.587   2.009   3.692
  295BF4      F10972   2.576   1.960   3.833
  295BF4      F10973   2.555   1.897   3.597
  295BF4      F10974   2.490   2.121   3.671
  295BF4      F10975   2.726   2.059   3.667
  296BF4      B10976   0.742   1.398   4.799
  296BF4      F10977   0.795   1.365   4.663
  296BF4      F10978   0.629   1.496   4.786
  296BF4      F10979   0.691   1.273   4.865
  296BF4      F10980   0.851   1.457   4.883
  297BF4      B10981   3.960   2.800   0.707
  297BF4      F10982   3.913   2.831   0.568
  297BF4      F10983   3.862   2.856   0.806
  297BF4      F10984   3.970   2.652   0.725
  297BF4      F10985   4.095   2.862   0.729
  298BF4      B10986   1.910   1.207   5.056
  298BF4      F10987   1.968   1.090   5.131
  298BF4      F10988   1.760   1.197   5.055
  298BF4      F10989   1.951   1.335   5.123
  298BF4      F10990   1.961   1.206   4.915
  299BF4      B10991   3.137   1.339   4.354
  299BF4      F10992   3.165   1.229   4.453
  299BF4      F10993   3.158   1.288   4.215
  299BF4      F10994   2.995   1.385   4.369
  299BF4      F10995   3.230   1.454   4.380
  300BF4      B10996   2.831   1.519   4.961
  300BF4      F10997   2.808   1.596   4.835
  300BF4      F10998   2.973   1.472   4.965
  300BF4      F10999   2.804   1.607   5.079
  300BF4      F11000   2.739   1.400   4.965
  301BF4      B11001   1.899   2.814   3.361
  301BF4      F11002   2.000   2.731   3.436
  301BF4      F11003   1.761   2.759   3.386
  301BF4      F11004   1.905   2.956   3.409
  301BF4      F11005   1.929   2.809   3.215
  302BF4      B11006   4.940   3.162   0.928
  302BF4      F11007   4.831   3.261   0.955
  302BF4      F11008   4.884   3.024   0.930
  302BF4      F11009   5.001   3.190   0.794
  302BF4      F11010   5.046   3.175   1.034
  303BF4      B11011   1.043   4.417   1.095
  303BF4      F11012   1.132   4.499   1.005
  303BF4      F11013   0.974   4.311   1.014
  303BF4      F11014   1.126   4.352   1.202
  303BF4      F11015   0.940   4.507   1.158
  304BF4      B11016   4.341   0.485   4.547
  304BF4      F11017   4.400   0.568   4.436
  304BF4      F11018   4.448   0.400   4.609
  304BF4      F11019   4.282   0.575   4.651
  304BF4      F11020   4.233   0.397   4.491
  305BF4      B11021   4.362   1.104   3.554
  305BF4      F11022   4.379   0.955   3.549
  305BF4      F11023   4.222   1.139   3.517
  305BF4      F11024   4.391   1.152   3.693
  305BF4      F11025   4.458   1.168   3.458
  306BF4      B11026   0.959   3.313   1.650
  306BF4      F11027   0.940   3.175   1.595
  306BF4      F11028   1.099   3.327   1.701
  306BF4      F11029   0.935   3.414   1.541
  306BF4      F11030   0.862   3.337   1.762
  307BF4      B11031   4.084   1.983   3.207
  307BF4      F11032   4.228   1.971   3.247
  307BF4      F11033   4.072   2.075   3.089
  307BF4      F11034   4.031   1.848   3.171
  307BF4      F11035   4.005   2.039   3.322
  308BF4      B11036   2.338   1.821   4.005
  308BF4      F11037   2.203   1.887   4.012
  308BF4      F11038   2.445   1.925   4.006
  308BF4      F11039   2.355   1.730   4.123
  308BF4      F11040   2.348   1.741   3.878
  309BF4      B11041   4.986   4.565   4.807
  309BF4      F11042   4.883   4.587   4.914
  309BF4      F11043   4.997   4.689   4.723
  309BF4      F11044   5.119   4.536   4.870
  309BF4      F11045   4.944   4.450   4.721
  310BF4      B11046   2.962   1.745   0.653
  310BF4      F11047   2.950   1.808   0.517
  310BF4      F11048   2.888   1.827   0.753
  310BF4      F11049   2.904   1.607   0.648
  310BF4      F11050   3.107   1.737   0.692
  311BF4      B11051   3.021   0.760   4.137
  311BF4      F11052   2.881   0.721   4.175
  311BF4      F11053   3.025   0.799   3.993
  311BF4      F11054   3.065   0.876   4.221
  311BF4      F11055   3.113   0.644   4.161
  312BF4      B11056   2.446   2.641   3.746
  312BF4      F11057   2.329   2.596   3.829
  312BF4      F11058   2.558   2.542   3.760
  312BF4      F11059   2.405   2.649   3.602
  312BF4      F11060   2.492   2.776   3.793
  313BF4      B11061   1.171   3.173   1.008
  313BF4      F11062   1.294   3.193   0.924
  313BF4      F11063   1.055   3.142   0.919
  313BF4      F11064   1.194   3.059   1.103
  313BF4      F11065   1.143   3.298   1.086
  314BF4      B11066   4.462   3.378   4.727
  314BF4      F11067   4.346   3.464   4.688
  314BF4      F11068   4.582   3.464   4.753
  314BF4      F11069   4.428   3.300   4.851
  314BF4      F11070   4.493   3.282   4.615
  315BF4      B11071   2.640   1.914   4.529
  315BF4      F11072   2.692   2.053   4.548
  315BF4      F11073   2.754   1.817   4.530
  315BF4      F11074   2.545   1.881   4.640
  315BF4      F11075   2.568   1.905   4.397
  316BF4      B11076   0.361   3.039   1.256
  316BF4      F11077   0.430   3.170   1.279
  316BF4      F11078   0.252   3.021   1.357
  316BF4      F11079   0.301   3.038   1.118
  316BF4      F11080   0.460   2.927   1.268
  317BF4      B11081   0.542   3.393   2.080
  317BF4      F11082   0.537   3.534   2.133
  317BF4      F11083   0.477   3.301   2.179
  317BF4      F11084   0.469   3.386   1.949
  317BF4      F11085   0.685   3.352   2.060
  318BF4      B11086   3.066   4.694   3.004
  318BF4      F11087   3.092   4.841   2.986
  318BF4      F11088   3.192   4.618   2.976
  318BF4      F11089   3.022   4.668   3.145
  318BF4      F11090   2.959   4.650   2.909
  319BF4      B11091   2.919   1.746   3.795
  319BF4      F11092   2.914   1.895   3.807
  319BF4      F11093   2.963   1.708   3.657
  319BF4      F11094   3.016   1.691   3.896
  319BF4      F11095   2.782   1.689   3.821
  320BF4      B11096   4.053   2.950   3.066
  320BF4      F11097   4.129   2.939   2.937
  320BF4      F11098   4.133   2.888   3.176
  320BF4      F11099   4.029   3.095   3.097
  320BF4      F11100   3.922   2.880   3.053
  321BF4      B11101   2.799   4.112   2.385
  321BF4      F11102   2.940   4.087   2.341
  321BF4      F11103   2.757   4.249   2.343
  321BF4      F11104   2.708   4.010   2.323
  321BF4      F11105   2.792   4.101   2.535
  322BF4      B11106   1.033   0.734   2.880
  322BF4      F11107   0.888   0.769   2.902
  322BF4      F11108   1.107   0.856   2.833
  322BF4      F11109   1.093   0.686   3.008
  322BF4      F11110   1.042   0.626   2.776
  323BF4      B11111   4.020   1.288   4.703
  323BF4      F11112   4.060   1.262   4.560
  323BF4      F11113   4.129   1.364   4.772
  323BF4      F11114   3.894   1.369   4.705
  323BF4      F11115   3.998   1.158   4.773
  324BF4      B11116   3.452   1.992   0.510
  324BF4      F11117   3.596   2.031   0.528
  324BF4      F11118   3.365   2.109   0.547
  324BF4      F11119   3.427   1.955   0.367
  324BF4      F11120   3.420   1.876   0.598
  325BF4      B11121   2.044   3.156   3.780
  325BF4      F11122   2.012   3.265   3.878
  325BF4      F11123   1.943   3.158   3.668
  325BF4      F11124   2.181   3.177   3.723
  325BF4      F11125   2.039   3.023   3.849
  326BF4      B11126   0.822   4.257   4.075
  326BF4      F11127   0.911   4.137   4.064
  326BF4      F11128   0.906   4.381   4.079
  326BF4      F11129   0.730   4.262   3.958
  326BF4      F11130   0.742   4.247   4.202
  327BF4      B11131   2.746   2.061   1.743
  327BF4      F11132   2.637   2.063   1.639
  327BF4      F11133   2.685   2.045   1.879
  327BF4      F11134   2.839   1.946   1.715
  327BF4      F11135   2.823   2.190   1.737
  328BF4      B11136   1.190   0.848   3.712
  328BF4      F11137   1.328   0.815   3.761
  328BF4      F11138   1.169   0.996   3.718
  328BF4      F11139   1.175   0.801   3.570
  328BF4      F11140   1.088   0.779   3.798
  329BF4      B11141   0.503   3.714   3.646
  329BF4      F11142   0.599   3.674   3.537
  329BF4      F11143   0.468   3.859   3.631
  329BF4      F11144   0.379   3.631   3.637
  329BF4      F11145   0.568   3.692   3.780
  330BF4      B11146   4.790   1.879   1.482
  330BF4      F11147   4.800   1.831   1.624
  330BF4      F11148   4.806   1.762   1.389
  330BF4      F11149   4.655   1.942   1.460
  330BF4      F11150   4.897   1.979   1.455
  331BF4      B11151   1.046   3.227   4.624
  331BF4      F11152   1.128   3.113   4.674
  331BF4      F11153   1.135   3.328   4.558
  331BF4      F11154   0.946   3.177   4.524
  331BF4      F11155   0.973   3.291   4.738
  332BF4      B11156   2.519   3.284   1.665
  332BF4      F11157   2.375   3.302   1.627
  332BF4      F11158   2.598   3.403   1.619
  332BF4      F11159   2.530   3.271   1.814
  332BF4      F11160   2.572   3.160   1.600
  333BF4      B11161   1.148   3.829   4.306
  333BF4      F11162   1.265   3.871   4.389
  333BF4      F11163   1.021   3.862   4.378
  333BF4      F11164   1.152   3.900   4.174
  333BF4      F11165   1.155   3.680   4.282
  334BF4      B11166   3.601   0.890   0.919
  334BF4      F11167   3.560   0.746   0.914
  334BF4      F11168   3.750   0.900   0.914
  334BF4      F11169   3.542   0.963   0.801
  334BF4      F11170   3.550   0.952   1.046
  335BF4      B11171   2.522   1.499   1.085
  335BF4      F11172   2.668   1.522   1.061
  335BF4      F11173   2.441   1.599   1.007
  335BF4      F11174   2.485   1.360   1.040
  335BF4      F11175   2.492   1.514   1.231
  336BF4      B11176   1.785   0.454   3.420
  336BF4      F11177   1.920   0.511   3.392
  336BF4      F11178   1.800   0.327   3.500
  336BF4      F11179   1.704   0.553   3.498
  336BF4      F11180   1.715   0.423   3.291
  337BF4      B11181   1.456   3.353   3.921
  337BF4      F11182   1.499   3.285   4.048
  337BF4      F11183   1.527   3.484   3.908
  337BF4      F11184   1.490   3.266   3.804
  337BF4      F11185   1.308   3.377   3.925
  338BF4      B11186   1.050   4.836   0.307
  338BF4      F11187   0.933   4.797   0.221
  338BF4      F11188   1.063   4.739   0.421
  338BF4      F11189   1.176   4.834   0.225
  338BF4      F11190   1.028   4.974   0.362
  339BF4      B11191   4.526   0.331   1.109
  339BF4      F11192   4.382   0.289   1.113
  339BF4      F11193   4.581   0.306   0.972
  339BF4      F11194   4.536   0.477   1.141
  339BF4      F11195   4.604   0.252   1.210
  340BF4      B11196   0.268   1.829   4.243
  340BF4      F11197   0.197   1.749   4.349
  340BF4      F11198   0.397   1.882   4.298
  340BF4      F11199   0.296   1.742   4.125
  340BF4      F11200   0.181   1.944   4.201
  341BF4      B11201   4.166   0.844   0.604
  341BF4      F11202   4.307   0.866   0.560
  341BF4      F11203   4.120   0.709   0.558
  341BF4      F11204   4.158   0.851   0.753
  341BF4      F11205   4.078   0.950   0.544
  342BF4      B11206   1.323   0.458   4.124
  342BF4      F11207   1.203   0.540   4.163
  342BF4      F11208   1.422   0.546   4.052
  342BF4      F11209   1.387   0.402   4.247
  342BF4      F11210   1.281   0.346   4.034
  343BF4      B11211   4.424   0.372   1.868
  343BF4      F11212   4.319   0.466   1.816
  343BF4      F11213   4.523   0.344   1.758
  343BF4      F11214   4.495   0.436   1.983
  343BF4      F11215   4.360   0.245   1.912
  344BF4      B11216   0.853   3.839   2.030
  344BF4      F11217   0.958   3.887   1.933
  344BF4      F11218   0.885   3.699   2.072
  344BF4      F11219   0.852   3.928   2.150
  344BF4      F11220   0.719   3.842   1.963
  345BF4      B11221   1.291   0.975   3.371
  345BF4      F11222   1.162   0.898   3.373
  345BF4      F11223   1.405   0.882   3.343
  345BF4      F11224   1.284   1.080   3.264
  345BF4      F11225   1.311   1.041   3.504
  346BF4      B11226   4.780   3.061   1.729
  346BF4      F11227   4.787   2.924   1.789
  346BF4      F11228   4.888   3.076   1.626
  346BF4      F11229   4.646   3.081   1.664
  346BF4      F11230   4.800   3.164   1.836
  347BF4      B11231   1.503   2.840   2.525
  347BF4      F11232   1.385   2.860   2.434
  347BF4      F11233   1.571   2.711   2.490
  347BF4      F11234   1.599   2.954   2.507
  347BF4      F11235   1.455   2.836   2.667
  348BF4      B11236   3.106   1.561   0.345
  348BF4      F11237   3.121   1.411   0.343
  348BF4      F11238   3.242   1.624   0.342
  348BF4      F11239   3.026   1.605   0.226
  348BF4      F11240   3.035   1.601   0.471
  349BF4      B11241   0.199   3.652   3.281
  349BF4      F11242   0.133   3.522   3.245
  349BF4      F11243   0.114   3.766   3.236
  349BF4      F11244   0.219   3.659   3.429
  349BF4      F11245   0.333   3.659   3.213
  350BF4      B11246   1.420   1.941   1.537
  350BF4      F11247   1.380   1.997   1.670
  350BF4      F11248   1.299   1.888   1.467
  350BF4      F11249   1.482   2.049   1.454
  350BF4      F11250   1.519   1.831   1.557
  351BF4      B11251   3.724   0.469   1.284
  351BF4      F11252   3.834   0.381   1.231
  351BF4      F11253   3.592   0.424   1.229
  351BF4      F11254   3.722   0.461   1.434
  351BF4      F11255   3.750   0.611   1.242
  352BF4      B11256   0.233   3.057   3.802
  352BF4      F11257   0.124   2.954   3.787
  352BF4      F11258   0.366   2.991   3.779
  352BF4      F11259   0.213   3.166   3.701
  352BF4      F11260   0.229   3.115   3.940
  353BF4      B11261   1.687   2.408   3.687
  353BF4      F11262   1.653   2.282   3.614
  353BF4      F11263   1.658   2.526   3.600
  353BF4      F11264   1.606   2.417   3.813
  353BF4      F11265   1.833   2.406   3.723
  354BF4      B11266   4.200   0.205   2.992
  354BF4      F11267   4.343   0.161   2.997
  354BF4      F11268   4.119   0.124   3.088
  354BF4      F11269   4.191   0.350   3.029
  354BF4      F11270   4.146   0.186   2.853
  355BF4      B11271   1.142   4.371   0.453
  355BF4      F11272   1.091   4.235   0.419
  355BF4      F11273   1.292   4.371   0.449
  355BF4      F11274   1.090   4.471   0.355
  355BF4      F11275   1.096   4.408   0.591
  356BF4      B11276   4.822   1.179   3.426
  356BF4      F11277   4.922   1.156   3.535
  356BF4      F11278   4.746   1.306   3.453
  356BF4      F11279   4.893   1.191   3.294
  356BF4      F11280   4.726   1.064   3.420
  357BF4      B11281   0.955   0.215   1.501
  357BF4      F11282   0.989   0.357   1.467
  357BF4      F11283   0.912   0.207   1.645
  357BF4      F11284   0.843   0.168   1.413
  357BF4      F11285   1.075   0.128   1.480
  358BF4      B11286   4.737   0.844   4.376
  358BF4      F11287   4.822   0.747   4.452
  358BF4      F11288   4.677   0.944   4.471
  358BF4      F11289   4.821   0.916   4.275
  358BF4      F11290   4.627   0.770   4.305
  359BF4      B11291   0.397   3.309   3.311
  359BF4      F11292   0.360   3.178   3.375
  359BF4      F11293   0.311   3.418   3.367
  359BF4      F11294   0.541   3.340   3.340
  359BF4      F11295   0.377   3.299   3.163
  360BF4      B11296   3.171   1.430   3.491
  360BF4      F11297   3.034   1.469   3.443
  360BF4      F11298   3.231   1.542   3.570
  360BF4      F11299   3.160   1.308   3.577
  360BF4      F11300   3.258   1.400   3.372
  361BF4      B11301   0.519   3.404   2.856
  361BF4      F11302   0.500   3.259   2.825
  361BF4      F11303   0.643   3.422   2.939
  361BF4      F11304   0.533   3.481   2.728
  361BF4      F11305   0.401   3.455   2.932
  362BF4      B11306   0.510   3.263   0.395
  362BF4      F11307   0.422   3.376   0.351
  362BF4      F11308   0.498   3.150   0.297
  362BF4      F11309   0.652   3.309   0.402
  362BF4      F11310   0.466   3.216   0.531
  363BF4      B11311   1.609   0.235   1.899
  363BF4      F11312   1.643   0.376   1.863
  363BF4      F11313   1.636   0.213   2.045
  363BF4      F11314   1.464   0.209   1.871
  363BF4      F11315   1.693   0.141   1.818
  364BF4      B11316   2.728   1.452   1.619
  364BF4      F11317   2.618   1.372   1.556
  364BF4      F11318   2.831   1.486   1.516
  364BF4      F11319   2.670   1.578   1.676
  364BF4      F11320   2.791   1.372   1.729
  365BF4      B11321   1.251   2.555   4.127
  365BF4      F11322   1.155   2.486   4.219
  365BF4      F11323   1.251   2.702   4.155
  365BF4      F11324   1.389   2.501   4.148
  365BF4      F11325   1.209   2.531   3.985
  366BF4      B11326   0.866   4.037   4.664
  366BF4      F11327   0.901   4.182   4.653
  366BF4      F11328   0.911   3.985   4.797
  366BF4      F11329   0.717   4.020   4.652
  366BF4      F11330   0.934   3.960   4.554
  367BF4      B11331   2.487   0.643   3.758
  367BF4      F11332   2.397   0.660   3.877
  367BF4      F11333   2.415   0.689   3.634
  367BF4      F11334   2.611   0.726   3.777
  367BF4      F11335   2.525   0.499   3.743
  368BF4      B11336   2.213   3.311   0.960
  368BF4      F11337   2.152   3.224   1.066
  368BF4      F11338   2.205   3.455   1.002
  368BF4      F11339   2.356   3.272   0.940
  368BF4      F11340   2.138   3.292   0.831
  369BF4      B11341   0.663   3.656   3.223
  369BF4      F11342   0.787   3.604   3.157
  369BF4      F11343   0.592   3.750   3.130
  369BF4      F11344   0.572   3.541   3.256
  369BF4      F11345   0.699   3.728   3.349
  370BF4      B11346   4.703   2.360   3.021
  370BF4      F11347   4.818   2.446   2.979
  370BF4      F11348   4.583   2.445   3.047
  370BF4      F11349   4.672   2.261   2.913
  370BF4      F11350   4.740   2.286   3.147
  371BF4      B11351   2.573   1.296   2.650
  371BF4      F11352   2.615   1.184   2.560
  371BF4      F11353   2.450   1.255   2.726
  371BF4      F11354   2.683   1.327   2.747
  371BF4      F11355   2.542   1.417   2.568
  372BF4      B11356   4.003   2.711   2.160
  372BF4      F11357   3.955   2.734   2.300
  372BF4      F11358   3.900   2.631   2.085
  372BF4      F11359   4.024   2.842   2.092
  372BF4      F11360   4.132   2.635   2.164
  373BF4      B11361   0.199   2.130   3.961
  373BF4      F11362   0.308   2.233   3.960
  373BF4      F11363   0.114   2.146   3.838
  373BF4      F11364   0.259   1.993   3.963
  373BF4      F11365   0.114   2.150   4.083
  374BF4      B11366   4.690   4.928   3.180
  374BF4      F11367   4.609   5.022   3.096
  374BF4      F11368   4.769   4.837   3.091
  374BF4      F11369   4.785   5.007   3.266
  374BF4      F11370   4.599   4.848   3.267
  375BF4      B11371   1.940   2.199   3.670
  375BF4      F11372   2.025   2.075   3.667
  375BF4      F11373   2.028   2.320   3.666
  375BF4      F11374   1.848   2.200   3.551
  375BF4      F11375   1.858   2.201   3.796
  376BF4      B11376   4.636   3.340   1.400
  376BF4      F11377   4.531   3.447   1.397
  376BF4      F11378   4.769   3.398   1.363
  376BF4      F11379   4.644   3.282   1.538
  376BF4      F11380   4.600   3.232   1.303
  377BF4      B11381   2.693   2.797   4.550
  377BF4      F11382   2.692   2.855   4.411
  377BF4      F11383   2.578   2.853   4.628
  377BF4      F11384   2.680   2.648   4.542
  377BF4      F11385   2.822   2.833   4.618
  378BF4      B11386   3.443   3.352   1.180
  378BF4      F11387   3.537   3.466   1.152
  378BF4      F11388   3.420   3.341   1.328
  378BF4      F11389   3.313   3.376   1.110
  378BF4      F11390   3.504   3.224   1.129
  379BF4      B11391   3.935   0.370   3.263
  379BF4      F11392   4.074   0.392   3.211
  379BF4      F11393   3.849   0.487   3.227
  379BF4      F11394   3.877   0.245   3.202
  379BF4      F11395   3.940   0.355   3.412
  380BF4      B11396   4.896   1.302   4.667
  380BF4      F11397   4.854   1.432   4.604
  380BF4      F11398   4.777   1.211   4.677
  380BF4      F11399   5.001   1.238   4.582
  380BF4      F11400   4.951   1.329   4.804
  381BF4      B11401   0.255   4.096   4.231
  381BF4      F11402   0.338   3.970   4.226
  381BF4      F11403   0.114   4.061   4.267
  381BF4      F11404   0.312   4.189   4.333
  381BF4      F11405   0.258   4.162   4.096
  382BF4      B11406   3.551   4.715   0.782
  382BF4      F11407   3.593   4.574   0.812
  382BF4      F11408   3.597   4.753   0.645
  382BF4      F11409   3.401   4.725   0.789
  382BF4      F11410   3.612   4.808   0.883
  383BF4      B11411   4.262   4.835   1.742
  383BF4      F11412   4.262   4.936   1.631
  383BF4      F11413   4.403   4.796   1.774
  383BF4      F11414   4.198   4.894   1.863
  383BF4      F11415   4.186   4.713   1.698
  384BF4      B11416   1.515   2.032   2.477
  384BF4      F11417   1.562   2.085   2.609
  384BF4      F11418   1.547   2.132   2.369
  384BF4      F11419   1.584   1.902   2.447
  384BF4      F11420   1.367   2.010   2.482
  385BF4      B11421   1.523   2.977   4.133
  385BF4      F11422   1.500   2.945   3.988
  385BF4      F11423   1.397   3.031   4.192
  385BF4      F11424   1.563   2.852   4.205
  385BF4      F11425   1.632   3.079   4.145
  386BF4      B11426   2.969   0.885   2.016
  386BF4      F11427   2.822   0.860   1.992
  386BF4      F11428   3.043   0.876   1.886
  386BF4      F11429   2.987   1.021   2.075
  386BF4      F11430   3.022   0.781   2.111
  387BF4      B11431   2.506   2.331   0.555
  387BF4      F11432   2.618   2.421   0.511
  387BF4      F11433   2.379   2.412   0.566
  387BF4      F11434   2.486   2.222   0.454
  387BF4      F11435   2.539   2.271   0.688
  388BF4      B11436   0.498   4.004   4.845
  388BF4      F11437   0.588   3.927   4.936
  388BF4      F11438   0.477   3.928   4.718
  388BF4      F11439   0.365   4.026   4.912
  388BF4      F11440   0.561   4.137   4.814
  389BF4      B11441   3.529   3.051   1.439
  389BF4      F11442   3.415   3.149   1.434
  389BF4      F11443   3.474   2.911   1.433
  389BF4      F11444   3.620   3.074   1.322
  389BF4      F11445   3.605   3.070   1.567
  390BF4      B11446   0.296   2.207   2.957
  390BF4      F11447   0.405   2.222   3.059
  390BF4      F11448   0.185   2.302   2.989
  390BF4      F11449   0.350   2.237   2.821
  390BF4      F11450   0.244   2.066   2.960
  391BF4      B11451   0.627   4.434   1.877
  391BF4      F11452   0.776   4.432   1.864
  391BF4      F11453   0.581   4.575   1.902
  391BF4      F11454   0.565   4.383   1.751
  391BF4      F11455   0.586   4.347   1.992
  392BF4      B11456   1.132   1.612   0.437
  392BF4      F11457   1.070   1.735   0.496
  392BF4      F11458   1.113   1.612   0.289
  392BF4      F11459   1.279   1.611   0.468
  392BF4      F11460   1.068   1.490   0.496
  393BF4      B11461   2.889   1.367   0.763
  393BF4      F11462   3.015   1.445   0.748
  393BF4      F11463   2.772   1.460   0.765
  393BF4      F11464   2.874   1.271   0.648
  393BF4      F11465   2.893   1.290   0.892
  394BF4      B11466   0.644   1.680   3.861
  394BF4      F11467   0.502   1.641   3.887
  394BF4      F11468   0.657   1.732   3.721
  394BF4      F11469   0.685   1.788   3.957
  394BF4      F11470   0.733   1.561   3.879
  395BF4      B11471   4.470   4.768   2.430
  395BF4      F11472   4.376   4.881   2.459
  395BF4      F11473   4.434   4.650   2.515
  395BF4      F11474   4.459   4.730   2.285
  395BF4      F11475   4.611   4.810   2.460
  396BF4      B11476   3.324   0.407   1.012
  396BF4      F11477   3.275   0.512   0.916
  396BF4      F11478   3.254   0.277   0.983
  396BF4      F11479   3.472   0.389   0.995
  396BF4      F11480   3.294   0.450   1.152
  397BF4      B11481   1.514   1.634   0.872
  397BF4      F11482   1.635   1.719   0.847
  397BF4      F11483   1.408   1.717   0.939
  397BF4      F11484   1.461   1.583   0.741
  397BF4      F11485   1.551   1.519   0.960
  398BF4      B11486   0.807   1.111   2.513
  398BF4      F11487   0.717   1.172   2.410
  398BF4      F11488   0.730   1.089   2.640
  398BF4      F11489   0.858   0.979   2.463
  398BF4      F11490   0.923   1.202   2.539
  399BF4      B11491   1.118   4.820   1.943
  399BF4      F11492   1.234   4.743   1.999
  399BF4      F11493   1.120   4.960   1.999
  399BF4      F11494   1.128   4.826   1.794
  399BF4      F11495   0.990   4.753   1.983
  400BF4      B11496   3.832   2.361   1.055
  400BF4      F11497   3.820   2.285   1.184
  400BF4      F11498   3.767   2.283   0.945
  400BF4      F11499   3.764   2.494   1.069
  400BF4      F11500   3.977   2.383   1.024
  401BF4      B11501   1.759   2.664   1.912
  401BF4      F11502   1.745   2.639   1.765
  401BF4      F11503   1.740   2.536   1.988
  401BF4      F11504   1.896   2.719   1.940
  401BF4      F11505   1.656   2.764   1.956
  402BF4      B11506   2.866   0.140   2.278
  402BF4      F11507   2.812   0.279   2.287
  402BF4      F11508   3.015   0.144   2.267
  402BF4      F11509   2.826   0.063   2.400
  402BF4      F11510   2.809   0.073   2.156
  403BF4      B11511   4.035   0.960   2.425
  403BF4      F11512   4.048   1.102   2.472
  403BF4      F11513   3.892   0.917   2.437
  403BF4      F11514   4.078   0.951   2.281
  403BF4      F11515   4.122   0.871   2.509
  404BF4      B11516   3.631   1.706   4.933
  404BF4      F11517   3.774   1.688   4.975
  404BF4      F11518   3.613   1.842   4.873
  404BF4      F11519   3.595   1.602   4.832
  404BF4      F11520   3.542   1.692   5.053
  405BF4      B11521   0.244   4.910   4.728
  405BF4      F11522   0.252   4.862   4.870
  405BF4      F11523   0.121   4.854   4.663
  405BF4      F11524   0.238   5.060   4.726
  405BF4      F11525   0.366   4.864   4.653
  406BF4      B11526   1.733   4.672   0.467
  406BF4      F11527   1.833   4.563   0.491
  406BF4      F11528   1.670   4.654   0.333
  406BF4      F11529   1.627   4.666   0.573
  406BF4      F11530   1.802   4.805   0.473
  407BF4      B11531   2.649   4.319   1.555
  407BF4      F11532   2.578   4.448   1.583
  407BF4      F11533   2.791   4.346   1.519
  407BF4      F11534   2.644   4.232   1.677
  407BF4      F11535   2.580   4.249   1.441
  408BF4      B11536   4.901   3.383   3.878
  408BF4      F11537   4.998   3.383   3.763
  408BF4      F11538   4.861   3.242   3.909
  408BF4      F11539   4.966   3.445   3.998
  408BF4      F11540   4.780   3.463   3.840
  409BF4      B11541   3.048   2.678   4.890
  409BF4      F11542   3.153   2.618   4.801
  409BF4      F11543   2.957   2.764   4.809
  409BF4      F11544   2.969   2.568   4.956
  409BF4      F11545   3.115   2.761   4.996
  410BF4      B11546   4.747   4.687   4.590
  410BF4      F11547   4.850   4.795   4.597
  410BF4      F11548   4.810   4.559   4.544
  410BF4      F11549   4.687   4.666   4.726
  410BF4      F11550   4.639   4.727   4.494
  411BF4      B11551   0.725   2.192   2.471
  411BF4      F11552   0.838   2.201   2.569
  411BF4      F11553   0.766   2.105   2.356
  411BF4      F11554   0.605   2.133   2.538
  411BF4      F11555   0.691   2.330   2.420
  412BF4      B11556   1.763   2.181   0.452
  412BF4      F11557   1.744   2.329   0.433
  412BF4      F11558   1.888   2.137   0.383
  412BF4      F11559   1.773   2.150   0.599
  412BF4      F11560   1.645   2.108   0.394
  413BF4      B11561   1.920   3.475   0.838
  413BF4      F11562   2.067   3.500   0.836
  413BF4      F11563   1.895   3.327   0.830
  413BF4      F11564   1.861   3.528   0.965
  413BF4      F11565   1.856   3.543   0.721
  414BF4      B11566   4.644   3.383   1.830
  414BF4      F11567   4.794   3.384   1.831
  414BF4      F11568   4.594   3.242   1.848
  414BF4      F11569   4.592   3.469   1.941
  414BF4      F11570   4.595   3.436   1.698
  415BF4      B11571   1.543   3.815   4.919
  415BF4      F11572   1.429   3.907   4.888
  415BF4      F11573   1.654   3.892   4.984
  415BF4      F11574   1.497   3.707   5.012
  415BF4      F11575   1.593   3.753   4.791
  416BF4      B11576   1.400   0.839   4.099
  416BF4      F11577   1.304   0.823   3.984
  416BF4      F11578   1.384   0.975   4.159
  416BF4      F11579   1.371   0.734   4.202
  416BF4      F11580   1.540   0.823   4.048
  417BF4      B11581   3.491   3.013   0.167
  417BF4      F11582   3.558   3.055   0.294
  417BF4      F11583   3.365   2.938   0.199
  417BF4      F11584   3.457   3.134   0.086
  417BF4      F11585   3.583   2.925   0.088
  418BF4      B11586   3.465   1.214   2.275
  418BF4      F11587   3.603   1.210   2.217
  418BF4      F11588   3.371   1.275   2.176
  418BF4      F11589   3.421   1.075   2.308
  418BF4      F11590   3.466   1.297   2.400
  419BF4      B11591   1.526   1.076   3.690
  419BF4      F11592   1.459   0.949   3.647
  419BF4      F11593   1.659   1.088   3.622
  419BF4      F11594   1.440   1.193   3.654
  419BF4      F11595   1.547   1.073   3.839
  420BF4      B11596   4.866   2.752   2.233
  420BF4      F11597   4.894   2.653   2.343
  420BF4      F11598   4.835   2.678   2.106
  420BF4      F11599   4.749   2.837   2.271
  420BF4      F11600   4.986   2.839   2.212
  421BF4      B11601   4.518   4.413   4.488
  421BF4      F11602   4.651   4.349   4.518
  421BF4      F11603   4.422   4.308   4.439
  421BF4      F11604   4.464   4.475   4.613
  421BF4      F11605   4.536   4.518   4.383
  422BF4      B11606   2.967   2.522   3.932
  422BF4      F11607   2.927   2.430   4.044
  422BF4      F11608   3.006   2.441   3.813
  422BF4      F11609   2.851   2.611   3.896
  422BF4      F11610   3.083   2.607   3.976
  423BF4      B11611   0.471   2.919   3.334
  423BF4      F11612   0.524   3.013   3.229
  423BF4      F11613   0.328   2.951   3.362
  423BF4      F11614   0.483   2.778   3.286
  423BF4      F11615   0.552   2.935   3.460
  424BF4      B11616   3.372   0.665   0.606
  424BF4      F11617   3.470   0.589   0.692
  424BF4      F11618   3.232   0.628   0.646
  424BF4      F11619   3.393   0.812   0.625
  424BF4      F11620   3.395   0.629   0.462
  425BF4      B11621   0.590   0.121   0.788
  425BF4      F11622   0.675   0.051   0.891
  425BF4      F11623   0.605   0.051   0.656
  425BF4      F11624   0.447   0.118   0.831
  425BF4      F11625   0.635   0.263   0.775
  426BF4      B11626   3.413   3.904   2.574
  426BF4      F11627   3.279   3.902   2.507
  426BF4      F11628   3.447   3.766   2.623
  426BF4      F11629   3.518   3.949   2.476
  426BF4      F11630   3.410   3.999   2.690
  427BF4      B11631   0.391   4.632   4.473
  427BF4      F11632   0.349   4.489   4.453
  427BF4      F11633   0.274   4.722   4.453
  427BF4      F11634   0.444   4.649   4.613
  427BF4      F11635   0.499   4.666   4.375
  428BF4      B11636   3.200   1.937   4.087
  428BF4      F11637   3.112   1.824   4.044
  428BF4      F11638   3.126   2.067   4.070
  428BF4      F11639   3.238   1.920   4.231
  428BF4      F11640   3.324   1.939   4.002
  429BF4      B11641   1.230   4.511   1.799
  429BF4      F11642   1.105   4.581   1.754
  429BF4      F11643   1.348   4.569   1.727
  429BF4      F11644   1.248   4.529   1.946
  429BF4      F11645   1.219   4.365   1.767
  430BF4      B11646   1.994   4.779   0.277
  430BF4      F11647   1.846   4.761   0.257
  430BF4      F11648   2.063   4.646   0.267
  430BF4      F11649   2.048   4.871   0.172
  430BF4      F11650   2.019   4.838   0.413
  431BF4      B11651   0.291   0.543   2.698
  431BF4      F11652   0.226   0.556   2.832
  431BF4      F11653   0.239   0.650   2.606
  431BF4      F11654   0.440   0.557   2.713
  431BF4      F11655   0.260   0.408   2.640
  432BF4      B11656   1.432   0.358   1.336
  432BF4      F11657   1.496   0.362   1.200
  432BF4      F11658   1.325   0.463   1.344
  432BF4      F11659   1.370   0.223   1.359
  432BF4      F11660   1.536   0.384   1.441
  433BF4      B11661   2.468   2.829   2.837
  433BF4      F11662   2.526   2.697   2.877
  433BF4      F11663   2.545   2.885   2.721
  433BF4      F11664   2.324   2.811   2.798
  433BF4      F11665   2.477   2.924   2.953
  434BF4      B11666   1.611   1.695   4.554
  434BF4      F11667   1.677   1.561   4.547
  434BF4      F11668   1.707   1.801   4.508
  434BF4      F11669   1.489   1.696   4.466
  434BF4      F11670   1.570   1.723   4.696
  435BF4      B11671   0.257   4.875   3.884
  435BF4      F11672   0.363   4.873   3.990
  435BF4      F11673   0.175   4.999   3.898
  435BF4      F11674   0.321   4.872   3.749
  435BF4      F11675   0.169   4.754   3.900
  436BF4      B11676   3.949   0.522   3.950
  436BF4      F11677   3.997   0.660   3.921
  436BF4      F11678   3.916   0.452   3.821
  436BF4      F11679   4.055   0.445   4.023
  436BF4      F11680   3.826   0.529   4.036
  437BF4      B11681   2.025   0.162   0.201
  437BF4      F11682   1.954   0.291   0.232
  437BF4      F11683   1.953   0.092   0.089
  437BF4      F11684   2.166   0.191   0.159
  437BF4      F11685   2.026   0.075   0.323
  438BF4      B11686   3.031   2.369   1.094
  438BF4      F11687   2.883   2.351   1.086
  438BF4      F11688   3.096   2.237   1.126
  438BF4      F11689   3.082   2.419   0.962
  438BF4      F11690   3.065   2.468   1.201
  439BF4      B11691   2.937   3.198   2.138
  439BF4      F11692   3.026   3.207   2.018
  439BF4      F11693   3.018   3.154   2.257
  439BF4      F11694   2.877   3.333   2.166
  439BF4      F11695   2.828   3.099   2.112
  440BF4      B11696   0.196   0.581   4.537
  440BF4      F11697   0.116   0.455   4.555
  440BF4      F11698   0.233   0.596   4.393
  440BF4      F11699   0.114   0.699   4.580
  440BF4      F11700   0.320   0.573   4.621
  441BF4      B11701   3.252   4.197   2.531
  441BF4      F11702   3.363   4.104   2.492
  441BF4      F11703   3.295   4.339   2.511
  441BF4      F11704   3.131   4.169   2.446
  441BF4      F11705   3.217   4.175   2.675
  442BF4      B11706   1.080   4.628   1.364
  442BF4      F11707   1.048   4.490   1.413
  442BF4      F11708   1.110   4.717   1.481
  442BF4      F11709   1.200   4.623   1.273
  442BF4      F11710   0.963   4.683   1.288
  443BF4      B11711   2.418   2.491   0.321
  443BF4      F11712   2.279   2.445   0.355
  443BF4      F11713   2.474   2.570   0.436
  443BF4      F11714   2.505   2.372   0.294
  443BF4      F11715   2.413   2.578   0.199
  444BF4      B11716   1.623   1.198   0.810
  444BF4      F11717   1.495   1.135   0.857
  444BF4      F11718   1.627   1.341   0.855
  444BF4      F11719   1.740   1.124   0.868
  444BF4      F11720   1.629   1.193   0.660
  445BF4      B11721   4.706   0.786   4.068
  445BF4      F11722   4.651   0.908   4.136
  445BF4      F11723   4.839   0.752   4.129
  445BF4      F11724   4.612   0.671   4.086
  445BF4      F11725   4.724   0.814   3.922
  446BF4      B11726   0.452   1.122   4.360
  446BF4      F11727   0.540   1.228   4.419
  446BF4      F11728   0.438   1.009   4.458
  446BF4      F11729   0.317   1.179   4.330
  446BF4      F11730   0.514   1.071   4.233
  447BF4      B11731   0.963   2.564   1.721
  447BF4      F11732   0.852   2.658   1.684
  447BF4      F11733   0.924   2.486   1.843
  447BF4      F11734   0.988   2.470   1.607
  447BF4      F11735   1.088   2.643   1.749
  448BF4      B11736   3.479   0.818   3.466
  448BF4      F11737   3.356   0.888   3.417
  448BF4      F11738   3.444   0.678   3.506
  448BF4      F11739   3.582   0.815   3.357
  448BF4      F11740   3.534   0.892   3.585
  449BF4      B11741   4.635   3.174   2.140
  449BF4      F11742   4.569   3.305   2.106
  449BF4      F11743   4.536   3.085   2.209
  449BF4      F11744   4.683   3.108   2.015
  449BF4      F11745   4.751   3.199   2.232
  450BF4      B11746   3.129   2.318   1.597
  450BF4      F11747   3.177   2.442   1.528
  450BF4      F11748   3.245   2.247   1.659
  450BF4      F11749   3.031   2.356   1.704
  450BF4      F11750   3.062   2.228   1.497
  451BF4      B11751   0.316   4.418   0.535
  451BF4      F11752   0.372   4.505   0.644
  451BF4      F11753   0.172   4.451   0.515
  451BF4      F11754   0.392   4.442   0.408
  451BF4      F11755   0.330   4.274   0.575
  452BF4      B11756   2.120   2.318   0.715
  452BF4      F11757   2.016   2.255   0.803
  452BF4      F11758   2.256   2.277   0.763
  452BF4      F11759   2.101   2.272   0.574
  452BF4      F11760   2.108   2.467   0.721
  453BF4      B11761   4.767   3.966   0.701
  453BF4      F11762   4.908   3.992   0.748
  453BF4      F11763   4.760   3.830   0.638
  453BF4      F11764   4.674   3.971   0.819
  453BF4      F11765   4.728   4.070   0.601
  454BF4      B11766   2.771   3.743   3.068
  454BF4      F11767   2.795   3.882   3.119
  454BF4      F11768   2.768   3.648   3.184
  454BF4      F11769   2.640   3.738   2.995
  454BF4      F11770   2.882   3.705   2.975
  455BF4      B11771   1.980   1.487   2.068
  455BF4      F11772   1.915   1.355   2.042
  455BF4      F11773   1.909   1.557   2.179
  455BF4      F11774   2.124   1.465   2.107
  455BF4      F11775   1.975   1.571   1.944
  456BF4      B11776   4.321   3.932   0.985
  456BF4      F11777   4.373   3.938   1.125
  456BF4      F11778   4.241   3.806   0.967
  456BF4      F11779   4.233   4.050   0.958
  456BF4      F11780   4.436   3.932   0.889
  457BF4      B11781   3.878   2.874   2.610
  457BF4      F11782   3.877   3.001   2.530
  457BF4      F11783   4.002   2.870   2.695
  457BF4      F11784   3.757   2.869   2.698
  457BF4      F11785   3.878   2.756   2.517
  458BF4      B11786   3.389   0.517   1.549
  458BF4      F11787   3.364   0.645   1.623
  458BF4      F11788   3.358   0.536   1.404
  458BF4      F11789   3.533   0.477   1.565
  458BF4      F11790   3.301   0.409   1.606
  459BF4      B11791   5.073   0.378   2.795
  459BF4      F11792   4.928   0.419   2.796
  459BF4      F11793   5.105   0.307   2.923
  459BF4      F11794   5.098   0.286   2.680
  459BF4      F11795   5.159   0.500   2.782
  460BF4      B11796   3.805   2.098   0.403
  460BF4      F11797   3.795   2.188   0.523
  460BF4      F11798   3.699   2.136   0.304
  460BF4      F11799   3.941   2.114   0.340
  460BF4      F11800   3.786   1.956   0.445
  461BF4      B11801   4.367   1.106   1.968
  461BF4      F11802   4.510   1.150   1.960
  461BF4      F11803   4.278   1.227   1.970
  461BF4      F11804   4.333   1.021   1.850
  461BF4      F11805   4.347   1.027   2.094
  462BF4      B11806   4.132   3.447   4.400
  462BF4      F11807   4.080   3.308   4.419
  462BF4      F11808   4.017   3.539   4.371
  462BF4      F11809   4.203   3.492   4.524
  462BF4      F11810   4.227   3.449   4.284
  463BF4      B11811   2.767   4.335   5.016
  463BF4      F11812   2.845   4.392   5.131
  463BF4      F11813   2.727   4.445   4.923
  463BF4      F11814   2.852   4.236   4.942
  463BF4      F11815   2.645   4.266   5.068
  464BF4      B11816   4.705   4.658   2.735
  464BF4      F11817   4.660   4.794   2.691
  464BF4      F11818   4.588   4.564   2.734
  464BF4      F11819   4.810   4.607   2.642
  464BF4      F11820   4.761   4.667   2.874
  465BF4      B11821   3.632   2.680   1.233
  465BF4      F11822   3.726   2.795   1.257
  465BF4      F11823   3.611   2.663   1.086
  465BF4      F11824   3.692   2.554   1.289
  465BF4      F11825   3.501   2.707   1.300
  466BF4      B11826   0.688   4.887   0.468
  466BF4      F11827   0.718   4.981   0.355
  466BF4      F11828   0.638   4.757   0.413
  466BF4      F11829   0.813   4.863   0.548
  466BF4      F11830   0.583   4.947   0.557
  467BF4      B11831   1.074   0.148   0.876
  467BF4      F11832   0.934   0.116   0.918
  467BF4      F11833   1.085   0.137   0.726
  467BF4      F11834   1.109   0.288   0.918
  467BF4      F11835   1.169   0.051   0.940
  468BF4      B11836   4.432   1.296   1.265
  468BF4      F11837   4.500   1.163   1.281
  468BF4      F11838   4.285   1.274   1.242
  468BF4      F11839   4.451   1.378   1.389
  468BF4      F11840   4.491   1.368   1.147
  469BF4      B11841   2.013   1.742   2.315
  469BF4      F11842   2.097   1.671   2.212
  469BF4      F11843   2.083   1.867   2.359
  469BF4      F11844   1.880   1.777   2.255
  469BF4      F11845   1.993   1.651   2.433
  470BF4      B11846   4.020   1.839   0.660
  470BF4      F11847   4.163   1.843   0.707
  470BF4      F11848   3.954   1.970   0.687
  470BF4      F11849   4.018   1.811   0.512
  470BF4      F11850   3.947   1.730   0.732
  471BF4      B11851   3.176   4.514   1.470
  471BF4      F11852   3.029   4.528   1.495
  471BF4      F11853   3.199   4.419   1.356
  471BF4      F11854   3.234   4.648   1.436
  471BF4      F11855   3.242   4.460   1.594
  472BF4      B11856   1.856   0.190   1.021
  472BF4      F11857   1.804   0.222   1.158
  472BF4      F11858   1.770   0.086   0.957
  472BF4      F11859   1.856   0.315   0.937
  472BF4      F11860   1.997   0.138   1.032
  473BF4      B11861   1.330   3.525   4.514
  473BF4      F11862   1.452   3.609   4.535
  473BF4      F11863   1.213   3.613   4.484
  473BF4      F11864   1.353   3.431   4.400
  473BF4      F11865   1.302   3.446   4.639
  474BF4      B11866   3.944   3.565   0.403
  474BF4      F11867   3.925   3.437   0.479
  474BF4      F11868   3.863   3.561   0.277
  474BF4      F11869   3.899   3.681   0.488
  474BF4      F11870   4.089   3.581   0.369
  475BF4      B11871   2.996   4.890   0.429
  475BF4      F11872   2.947   5.001   0.517
  475BF4      F11873   2.882   4.840   0.345
  475BF4      F11874   3.105   4.941   0.339
  475BF4      F11875   3.049   4.778   0.514
  476BF4      B11876   0.527   4.359   3.735
  476BF4      F11877   0.657   4.433   3.740
  476BF4      F11878   0.414   4.456   3.750
  476BF4      F11879   0.514   4.287   3.604
  476BF4      F11880   0.522   4.259   3.847
  477BF4      B11881   4.085   1.378   1.842
  477BF4      F11882   4.064   1.230   1.840
  477BF4      F11883   3.963   1.447   1.789
  477BF4      F11884   4.111   1.422   1.983
  477BF4      F11885   4.204   1.413   1.757
  478BF4      B11886   4.682   1.924   1.003
  478BF4      F11887   4.561   2.011   1.019
  478BF4      F11888   4.639   1.782   0.984
  478BF4      F11889   4.761   1.970   0.884
  478BF4      F11890   4.768   1.934   1.126
  479BF4      B11891   4.366   2.855   4.063
  479BF4      F11892   4.513   2.887   4.061
  479BF4      F11893   4.287   2.982   4.062
  479BF4      F11894   4.331   2.773   3.942
  479BF4      F11895   4.334   2.777   4.187
  480BF4      B11896   0.599   4.393   0.993
  480BF4      F11897   0.566   4.480   0.876
  480BF4      F11898   0.493   4.288   1.009
  480BF4      F11899   0.732   4.327   0.970
  480BF4      F11900   0.605   4.477   1.118
  481BF4      B11901   4.079   0.436   2.529
  481BF4      F11902   3.961   0.347   2.501
  481BF4      F11903   4.205   0.356   2.520
  481BF4      F11904   4.083   0.547   2.427
  481BF4      F11905   4.065   0.495   2.666
  482BF4      B11906   2.425   3.578   2.491
  482BF4      F11907   2.530   3.677   2.532
  482BF4      F11908   2.444   3.541   2.347
  482BF4      F11909   2.437   3.455   2.577
  482BF4      F11910   2.289   3.639   2.510
  483BF4      B11911   2.148   2.106   4.998
  483BF4      F11912   2.046   1.997   5.010
  483BF4      F11913   2.163   2.175   5.130
  483BF4      F11914   2.280   2.046   4.958
  483BF4      F11915   2.105   2.205   4.894
  484BF4      B11916   0.986   4.128   2.503
  484BF4      F11917   1.014   4.274   2.527
  484BF4      F11918   0.872   4.084   2.590
  484BF4      F11919   0.949   4.107   2.359
  484BF4      F11920   1.108   4.048   2.536
  485BF4      B11921   4.112   3.736   3.026
  485BF4      F11922   4.160   3.597   2.999
  485BF4      F11923   4.175   3.787   3.153
  485BF4      F11924   4.150   3.826   2.912
  485BF4      F11925   3.962   3.736   3.042
  486BF4      B11926   2.623   4.267   4.254
  486BF4      F11927   2.553   4.225   4.380
  486BF4      F11928   2.699   4.393   4.279
  486BF4      F11929   2.717   4.159   4.210
  486BF4      F11930   2.521   4.291   4.147
  487BF4      B11931   3.646   2.700   0.763
  487BF4      F11932   3.519   2.704   0.683
  487BF4      F11933   3.651   2.817   0.855
  487BF4      F11934   3.652   2.573   0.842
  487BF4      F11935   3.764   2.705   0.669
  488BF4      B11936   2.773   1.339   3.016
  488BF4      F11937   2.857   1.352   3.140
  488BF4      F11938   2.817   1.442   2.916
  488BF4      F11939   2.790   1.202   2.957
  488BF4      F11940   2.629   1.362   3.051
  489BF4      B11941   0.172   3.138   2.876
  489BF4      F11942   0.322   3.143   2.883
  489BF4      F11943   0.127   2.995   2.878
  489BF4      F11944   0.114   3.210   2.994
  489BF4      F11945   0.126   3.204   2.750
  490BF4      B11946   0.855   2.402   3.097
  490BF4      F11947   0.803   2.372   3.234
  490BF4      F11948   0.917   2.278   3.039
  490BF4      F11949   0.742   2.447   3.009
  490BF4      F11950   0.959   2.510   3.105
  491BF4      B11951   0.866   1.979   3.001
  491BF4      F11952   0.728   1.923   3.021
  491BF4      F11953   0.926   2.013   3.134
  491BF4      F11954   0.951   1.877   2.932
  491BF4      F11955   0.858   2.103   2.916
  492BF4      B11956   3.561   2.805   1.801
  492BF4      F11957   3.415   2.834   1.780
  492BF4      F11958   3.594   2.671   1.741
  492BF4      F11959   3.643   2.911   1.735
  492BF4      F11960   3.590   2.803   1.948
  493BF4      B11961   0.739   4.975   4.015
  493BF4      F11962   0.775   4.940   4.157
  493BF4      F11963   0.592   5.004   4.007
  493BF4      F11964   0.815   5.096   3.972
  493BF4      F11965   0.772   4.860   3.925
  494BF4      B11966   3.489   4.739   2.817
  494BF4      F11967   3.596   4.842   2.838
  494BF4      F11968   3.354   4.801   2.840
  494BF4      F11969   3.497   4.686   2.677
  494BF4      F11970   3.509   4.626   2.914
  495BF4      B11971   0.391   4.365   4.141
  495BF4      F11972   0.456   4.231   4.161
  495BF4      F11973   0.496   4.471   4.127
  495BF4      F11974   0.307   4.361   4.017
  495BF4      F11975   0.303   4.396   4.259
  496BF4      B11976   1.608   1.256   4.180
  496BF4      F11977   1.688   1.221   4.302
  496BF4      F11978   1.607   1.405   4.161
  496BF4      F11979   1.671   1.191   4.060
  496BF4      F11980   1.468   1.206   4.196
  497BF4      B11981   3.106   4.937   0.879
  497BF4      F11982   3.241   4.872   0.871
  497BF4      F11983   3.122   5.086   0.871
  497BF4      F11984   3.020   4.889   0.767
  497BF4      F11985   3.042   4.901   1.010
  498BF4      B11986   2.088   1.959   1.123
  498BF4      F11987   2.234   1.990   1.119
  498BF4      F11988   2.068   1.811   1.124
  498BF4      F11989   2.027   2.019   1.246
  498BF4      F11990   2.021   2.017   1.001
  499BF4      B11991   0.246   1.939   0.530
  499BF4      F11992   0.113   1.962   0.597
  499BF4      F11993   0.244   1.807   0.459
  499BF4      F11994   0.272   2.049   0.431
  499BF4      F11995   0.354   1.938   0.634
  500BF4      B11996   1.030   1.151   2.235
  500BF4      F11997   1.060   1.134   2.089
  500BF4      F11998   0.907   1.072   2.269
  500BF4      F11999   1.145   1.101   2.317
  500BF4      F12000   1.006   1.296   2.265
   5.04500   5.04500   5.04500
