Neat EMI BF4
12000
    1EMI    C01    1   0.702   1.544   4.539
    1EMI    C04    2   0.802   1.689   4.667
    1EMI    C03    3   0.672   1.710   4.676
    1EMI    H07    4   0.684   1.464   4.470
    1EMI    H09    5   0.882   1.742   4.715
    1EMI    H08    6   0.622   1.787   4.730
    1EMI    C05    7   0.465   1.586   4.597
    1EMI    H0B    8   0.441   1.512   4.522
    1EMI    H0C    9   0.430   1.548   4.691
    1EMI    H0D   10   0.411   1.677   4.579
    1EMI    N00   11   0.609   1.612   4.602
    1EMI    C06   12   0.950   1.544   4.522
    1EMI    H0F   13   0.982   1.618   4.451
    1EMI    C0N   14   1.055   1.520   4.627
    1EMI    H0O   15   1.130   1.451   4.591
    1EMI    H0P   16   1.104   1.613   4.652
    1EMI    H0Q   17   1.011   1.481   4.718
    1EMI    N02   18   0.820   1.590   4.574
    1EMI    H0E   19   0.928   1.449   4.476
    2EMI    C01   20   3.643   4.237   4.550
    2EMI    C04   21   3.571   4.437   4.503
    2EMI    C03   22   3.569   4.366   4.390
    2EMI    H07   23   3.679   4.152   4.605
    2EMI    H09   24   3.545   4.540   4.519
    2EMI    H08   25   3.541   4.398   4.292
    2EMI    C05   26   3.630   4.130   4.325
    2EMI    H0B   27   3.645   4.037   4.379
    2EMI    H0C   28   3.542   4.123   4.264
    2EMI    H0D   29   3.717   4.149   4.263
    2EMI    N00   30   3.615   4.240   4.421
    2EMI    C06   31   3.626   4.395   4.745
    2EMI    H0F   32   3.705   4.467   4.759
    2EMI    C0N   33   3.490   4.446   4.791
    2EMI    H0O   34   3.490   4.460   4.897
    2EMI    H0P   35   3.469   4.542   4.746
    2EMI    H0Q   36   3.411   4.377   4.767
    2EMI    N02   37   3.619   4.356   4.603
    2EMI    H0E   38   3.654   4.308   4.802
    3EMI    C01   39   0.169   1.075   0.473
    3EMI    C04   40   0.362   1.010   0.552
    3EMI    C03   41   0.297   0.902   0.508
    3EMI    H07   42   0.082   1.135   0.450
    3EMI    H09   43   0.458   1.016   0.597
    3EMI    H08   44   0.324   0.799   0.509
    3EMI    C05   45   0.066   0.857   0.410
    3EMI    H0B   46   5.018   0.912   0.409
    3EMI    H0C   47   0.086   0.818   0.312
    3EMI    H0D   48   0.051   0.776   0.480
    3EMI    N00   49   0.175   0.945   0.457
    3EMI    C06   50   0.302   1.258   0.580
    3EMI    H0F   51   0.254   1.270   0.675
    3EMI    C0N   52   0.449   1.298   0.588
    3EMI    H0O   53   0.459   1.389   0.645
    3EMI    H0P   54   0.511   1.224   0.636
    3EMI    H0Q   55   0.488   1.318   0.489
    3EMI    N02   56   0.277   1.118   0.536
    3EMI    H0E   57   0.253   1.321   0.507
    4EMI    C01   58   4.371   2.459   0.426
    4EMI    C04   59   4.264   2.281   0.361
    4EMI    C03   60   4.175   2.379   0.377
    4EMI    H07   61   4.450   2.525   0.455
    4EMI    H09   62   4.247   2.180   0.331
    4EMI    H08   63   4.068   2.375   0.364
    4EMI    C05   64   4.179   2.617   0.458
    4EMI    H0B   65   4.252   2.694   0.477
    4EMI    H0C   66   4.110   2.646   0.380
    4EMI    H0D   67   4.120   2.601   0.547
    4EMI    N00   68   4.242   2.490   0.420
    4EMI    C06   69   4.513   2.254   0.406
    4EMI    H0F   70   4.521   2.204   0.501
    4EMI    C0N   71   4.523   2.153   0.293
    4EMI    H0O   72   4.621   2.106   0.293
    4EMI    H0P   73   4.450   2.074   0.304
    4EMI    H0Q   74   4.508   2.200   0.196
    4EMI    N02   75   4.386   2.330   0.401
    4EMI    H0E   76   4.595   2.324   0.395
    5EMI    C01   77   4.796   1.606   4.358
    5EMI    C04   78   4.759   1.399   4.411
    5EMI    C03   79   4.891   1.417   4.407
    5EMI    H07   80   4.782   1.710   4.332
    5EMI    H09   81   4.705   1.311   4.440
    5EMI    H08   82   4.968   1.347   4.431
    5EMI    C05   83   5.043   1.615   4.367
    5EMI    H0B   84   5.030   1.721   4.384
    5EMI    H0C   85   0.065   1.576   4.443
    5EMI    H0D   86   0.040   1.603   4.269
    5EMI    N00   87   4.913   1.549   4.376
    5EMI    C06   88   4.554   1.543   4.370
    5EMI    H0F   89   4.513   1.475   4.297
    5EMI    C0N   90   4.484   1.536   4.505
    5EMI    H0O   91   4.378   1.556   4.496
    5EMI    H0P   92   4.496   1.440   4.552
    5EMI    H0Q   93   4.526   1.609   4.573
    5EMI    N02   94   4.699   1.519   4.379
    5EMI    H0E   95   4.542   1.641   4.327
    6EMI    C01   96   0.467   0.774   1.152
    6EMI    C04   97   0.625   0.637   1.092
    6EMI    C03   98   0.508   0.582   1.059
    6EMI    H07   99   0.415   0.855   1.197
    6EMI    H09  100   0.722   0.595   1.081
    6EMI    H08  101   0.486   0.486   1.016
    6EMI    C05  102   0.264   0.643   1.097
    6EMI    H0B  103   0.206   0.727   1.129
    6EMI    H0C  104   0.230   0.612   0.999
    6EMI    H0D  105   0.244   0.563   1.167
    6EMI    N00  106   0.408   0.668   1.099
    6EMI    C06  107   0.696   0.855   1.206
    6EMI    H0F  108   0.741   0.812   1.293
    6EMI    C0N  109   0.799   0.901   1.105
    6EMI    H0O  110   0.867   0.973   1.147
    6EMI    H0P  111   0.856   0.817   1.068
    6EMI    H0Q  112   0.753   0.951   1.022
    6EMI    N02  113   0.597   0.759   1.152
    6EMI    H0E  114   0.638   0.940   1.241
    7EMI    C01  115   0.559   2.148   3.063
    7EMI    C04  116   0.475   1.952   3.018
    7EMI    C03  117   0.535   1.997   2.908
    7EMI    H07  118   0.580   2.240   3.113
    7EMI    H09  119   0.416   1.864   3.030
    7EMI    H08  120   0.537   1.954   2.810
    7EMI    C05  121   0.647   2.213   2.842
    7EMI    H0B  122   0.755   2.209   2.852
    7EMI    H0C  123   0.617   2.184   2.743
    7EMI    H0D  124   0.612   2.313   2.862
    7EMI    N00  125   0.586   2.121   2.938
    7EMI    C06  126   0.439   2.042   3.253
    7EMI    H0F  127   0.335   2.071   3.254
    7EMI    C0N  128   0.465   1.907   3.317
    7EMI    H0O  129   0.441   1.909   3.422
    7EMI    H0P  130   0.403   1.830   3.270
    7EMI    H0Q  131   0.569   1.880   3.306
    7EMI    N02  132   0.489   2.049   3.115
    7EMI    H0E  133   0.496   2.116   3.308
    8EMI    C01  134   4.743   4.583   0.639
    8EMI    C04  135   4.876   4.701   0.765
    8EMI    C03  136   4.764   4.772   0.747
    8EMI    H07  137   4.704   4.503   0.579
    8EMI    H09  138   4.966   4.723   0.819
    8EMI    H08  139   4.740   4.869   0.783
    8EMI    C05  140   4.546   4.736   0.621
    8EMI    H0B  141   4.490   4.648   0.591
    8EMI    H0C  142   4.492   4.785   0.700
    8EMI    H0D  143   4.554   4.802   0.535
    8EMI    N00  144   4.680   4.696   0.667
    8EMI    C06  145   4.957   4.472   0.700
    8EMI    H0F  146   5.045   4.499   0.644
    8EMI    C0N  147   4.992   4.431   0.842
    8EMI    H0O  148   5.040   4.334   0.843
    8EMI    H0P  149   0.016   4.502   0.887
    8EMI    H0Q  150   4.903   4.426   0.905
    8EMI    N02  151   4.861   4.583   0.696
    8EMI    H0E  152   4.911   4.389   0.649
    9EMI    C01  153   0.737   2.129   4.312
    9EMI    C04  154   0.526   2.135   4.366
    9EMI    C03  155   0.595   2.196   4.463
    9EMI    H07  156   0.828   2.114   4.257
    9EMI    H09  157   0.420   2.121   4.357
    9EMI    H08  158   0.560   2.243   4.552
    9EMI    C05  159   0.841   2.233   4.515
    9EMI    H0B  160   0.928   2.259   4.455
    9EMI    H0C  161   0.812   2.321   4.570
    9EMI    H0D  162   0.869   2.156   4.586
    9EMI    N00  163   0.729   2.187   4.430
    9EMI    C06  164   0.580   2.027   4.144
    9EMI    H0F  165   0.575   1.920   4.154
    9EMI    C0N  166   0.444   2.072   4.097
    9EMI    H0O  167   0.434   2.058   3.990
    9EMI    H0P  168   0.364   2.015   4.144
    9EMI    H0Q  169   0.428   2.176   4.120
    9EMI    N02  170   0.617   2.091   4.273
    9EMI    H0E  171   0.651   2.055   4.069
   10EMI    C01  172   4.761   1.076   2.725
   10EMI    C04  173   4.854   0.908   2.826
   10EMI    C03  174   4.768   0.964   2.911
   10EMI    H07  175   4.733   1.147   2.649
   10EMI    H09  176   4.919   0.823   2.836
   10EMI    H08  177   4.744   0.935   3.012
   10EMI    C05  178   4.615   1.167   2.906
   10EMI    H0B  179   4.586   1.240   2.833
   10EMI    H0C  180   4.527   1.114   2.940
   10EMI    H0D  181   4.660   1.217   2.990
   10EMI    N00  182   4.711   1.073   2.847
   10EMI    C06  183   4.936   0.956   2.592
   10EMI    H0F  184   5.039   0.965   2.623
   10EMI    C0N  185   4.907   0.821   2.531
   10EMI    H0O  186   4.971   0.800   2.446
   10EMI    H0P  187   4.926   0.744   2.604
   10EMI    H0Q  188   4.803   0.811   2.500
   10EMI    N02  189   4.851   0.982   2.710
   10EMI    H0E  190   4.917   1.034   2.520
   11EMI    C01  191   4.755   1.520   1.411
   11EMI    C04  192   4.661   1.664   1.544
   11EMI    C03  193   4.751   1.597   1.614
   11EMI    H07  194   4.776   1.458   1.326
   11EMI    H09  195   4.600   1.745   1.575
   11EMI    H08  196   4.782   1.614   1.715
   11EMI    C05  197   4.943   1.448   1.554
   11EMI    H0B  198   4.983   1.415   1.460
   11EMI    H0C  199   5.009   1.517   1.602
   11EMI    H0D  200   4.923   1.362   1.616
   11EMI    N00  201   4.816   1.513   1.527
   11EMI    C06  202   4.609   1.686   1.297
   11EMI    H0F  203   4.513   1.643   1.278
   11EMI    C0N  204   4.602   1.837   1.315
   11EMI    H0O  205   4.537   1.879   1.241
   11EMI    H0P  206   4.563   1.870   1.410
   11EMI    H0Q  207   4.700   1.881   1.301
   11EMI    N02  208   4.669   1.619   1.414
   11EMI    H0E  209   4.667   1.664   1.209
   12EMI    C01  210   1.521   2.192   1.703
   12EMI    C04  211   1.719   2.178   1.615
   12EMI    C03  212   1.665   2.291   1.573
   12EMI    H07  213   1.431   2.166   1.755
   12EMI    H09  214   1.811   2.133   1.590
   12EMI    H08  215   1.705   2.363   1.505
   12EMI    C05  216   1.434   2.392   1.579
   12EMI    H0B  217   1.346   2.382   1.640
   12EMI    H0C  218   1.474   2.492   1.586
   12EMI    H0D  219   1.409   2.370   1.476
   12EMI    N00  220   1.536   2.295   1.621
   12EMI    C06  221   1.649   1.986   1.766
   12EMI    H0F  222   1.604   1.905   1.711
   12EMI    C0N  223   1.796   1.959   1.785
   12EMI    H0O  224   1.813   1.867   1.838
   12EMI    H0P  225   1.847   1.946   1.691
   12EMI    H0Q  226   1.842   2.041   1.839
   12EMI    N02  227   1.627   2.115   1.696
   12EMI    H0E  228   1.603   1.995   1.864
   13EMI    C01  229   0.472   1.231   3.784
   13EMI    C04  230   0.398   1.031   3.811
   13EMI    C03  231   0.306   1.098   3.742
   13EMI    H07  232   0.536   1.316   3.791
   13EMI    H09  233   0.400   0.931   3.846
   13EMI    H08  234   0.212   1.065   3.703
   13EMI    C05  235   0.285   1.338   3.657
   13EMI    H0B  236   0.356   1.416   3.634
   13EMI    H0C  237   0.237   1.304   3.567
   13EMI    H0D  238   0.210   1.380   3.723
   13EMI    N00  239   0.355   1.227   3.725
   13EMI    C06  240   0.622   1.085   3.918
   13EMI    H0F  241   0.600   1.084   4.023
   13EMI    C0N  242   0.686   0.955   3.874
   13EMI    H0O  243   0.787   0.951   3.912
   13EMI    H0P  244   0.632   0.870   3.913
   13EMI    H0Q  245   0.690   0.947   3.766
   13EMI    N02  246   0.500   1.118   3.842
   13EMI    H0E  247   0.692   1.165   3.898
   14EMI    C01  248   3.363   2.501   2.701
   14EMI    C04  249   3.199   2.434   2.826
   14EMI    C03  250   3.309   2.434   2.901
   14EMI    H07  251   3.420   2.532   2.616
   14EMI    H09  252   3.101   2.401   2.854
   14EMI    H08  253   3.323   2.402   3.002
   14EMI    C05  254   3.555   2.483   2.857
   14EMI    H0B  255   3.607   2.554   2.795
   14EMI    H0C  256   3.568   2.512   2.960
   14EMI    H0D  257   3.599   2.384   2.844
   14EMI    N00  258   3.413   2.477   2.820
   14EMI    C06  259   3.148   2.477   2.579
   14EMI    H0F  260   3.183   2.402   2.510
   14EMI    C0N  261   3.001   2.450   2.609
   14EMI    H0O  262   2.943   2.449   2.517
   14EMI    H0P  263   2.989   2.352   2.655
   14EMI    H0Q  264   2.960   2.525   2.675
   14EMI    N02  265   3.235   2.472   2.699
   14EMI    H0E  266   3.158   2.577   2.540
   15EMI    C01  267   1.660   3.111   0.562
   15EMI    C04  268   1.459   3.104   0.478
   15EMI    C03  269   1.524   3.208   0.425
   15EMI    H07  270   1.749   3.087   0.617
   15EMI    H09  271   1.358   3.071   0.459
   15EMI    H08  272   1.486   3.280   0.356
   15EMI    C05  273   1.765   3.290   0.431
   15EMI    H0B  274   1.815   3.245   0.347
   15EMI    H0C  275   1.731   3.390   0.407
   15EMI    H0D  276   1.837   3.296   0.511
   15EMI    N00  277   1.652   3.208   0.474
   15EMI    C06  278   1.527   2.918   0.639
   15EMI    H0F  279   1.497   2.940   0.740
   15EMI    C0N  280   1.431   2.824   0.571
   15EMI    H0O  281   1.438   2.723   0.608
   15EMI    H0P  282   1.329   2.858   0.587
   15EMI    H0Q  283   1.449   2.820   0.464
   15EMI    N02  284   1.547   3.045   0.567
   15EMI    H0E  285   1.622   2.869   0.632
   16EMI    C01  286   5.022   1.665   1.905
   16EMI    C04  287   4.934   1.704   2.100
   16EMI    C03  288   4.930   1.572   2.080
   16EMI    H07  289   0.026   1.682   1.811
   16EMI    H09  290   4.904   1.763   2.184
   16EMI    H08  291   4.894   1.495   2.144
   16EMI    C05  292   5.020   1.416   1.902
   16EMI    H0B  293   0.069   1.421   1.849
   16EMI    H0C  294   5.028   1.344   1.981
   16EMI    H0D  295   4.942   1.391   1.833
   16EMI    N00  296   4.993   1.548   1.959
   16EMI    C06  297   5.019   1.904   1.972
   16EMI    H0F  298   5.012   1.929   1.868
   16EMI    C0N  299   4.917   1.983   2.048
   16EMI    H0O  300   4.918   2.080   2.005
   16EMI    H0P  301   4.818   1.942   2.041
   16EMI    H0Q  302   4.946   1.994   2.152
   16EMI    N02  303   4.997   1.760   1.991
   16EMI    H0E  304   0.072   1.932   2.008
   17EMI    C01  305   0.281   0.293   4.266
   17EMI    C04  306   0.298   0.116   4.391
   17EMI    C03  307   0.186   0.106   4.319
   17EMI    H07  308   0.299   0.389   4.220
   17EMI    H09  309   0.337   0.051   4.467
   17EMI    H08  310   0.111   0.029   4.321
   17EMI    C05  311   0.066   0.250   4.148
   17EMI    H0B  312   0.095   0.329   4.080
   17EMI    H0C  313   0.040   0.162   4.091
   17EMI    H0D  314   5.025   0.282   4.204
   17EMI    N00  315   0.176   0.218   4.240
   17EMI    C06  316   0.479   0.293   4.421
   17EMI    H0F  317   0.453   0.297   4.525
   17EMI    C0N  318   0.609   0.216   4.404
   17EMI    H0O  319   0.688   0.263   4.462
   17EMI    H0P  320   0.596   0.116   4.442
   17EMI    H0Q  321   0.641   0.209   4.302
   17EMI    N02  322   0.358   0.236   4.356
   17EMI    H0E  323   0.486   0.396   4.389
   18EMI    C01  324   2.860   2.161   2.911
   18EMI    C04  325   2.834   1.999   2.768
   18EMI    C03  326   2.767   2.105   2.722
   18EMI    H07  327   2.891   2.216   2.998
   18EMI    H09  328   2.846   1.901   2.729
   18EMI    H08  329   2.709   2.116   2.634
   18EMI    C05  330   2.736   2.345   2.795
   18EMI    H0B  331   2.812   2.414   2.830
   18EMI    H0C  332   2.713   2.366   2.693
   18EMI    H0D  333   2.648   2.361   2.856
   18EMI    N00  334   2.786   2.207   2.813
   18EMI    C06  335   2.995   1.953   2.956
   18EMI    H0F  336   2.949   1.897   3.036
   18EMI    C0N  337   3.071   1.865   2.858
   18EMI    H0O  338   3.161   1.825   2.905
   18EMI    H0P  339   3.013   1.782   2.820
   18EMI    H0Q  340   3.102   1.920   2.772
   18EMI    N02  341   2.894   2.035   2.887
   18EMI    H0E  342   3.069   2.020   2.997
   19EMI    C01  343   0.778   3.730   2.586
   19EMI    C04  344   0.989   3.781   2.585
   19EMI    C03  345   0.944   3.792   2.461
   19EMI    H07  346   0.679   3.711   2.621
   19EMI    H09  347   1.085   3.806   2.624
   19EMI    H08  348   0.994   3.832   2.376
   19EMI    C05  349   0.725   3.738   2.342
   19EMI    H0B  350   0.623   3.718   2.374
   19EMI    H0C  351   0.725   3.832   2.288
   19EMI    H0D  352   0.756   3.661   2.274
   19EMI    N00  353   0.812   3.750   2.460
   19EMI    C06  354   0.888   3.733   2.811
   19EMI    H0F  355   0.937   3.643   2.845
   19EMI    C0N  356   0.951   3.857   2.864
   19EMI    H0O  357   0.949   3.858   2.971
   19EMI    H0P  358   1.054   3.869   2.833
   19EMI    H0Q  359   0.888   3.938   2.830
   19EMI    N02  360   0.884   3.739   2.663
   19EMI    H0E  361   0.786   3.735   2.847
   20EMI    C01  362   2.382   0.943   0.274
   20EMI    C04  363   2.193   0.943   0.381
   20EMI    C03  364   2.278   0.865   0.448
   20EMI    H07  365   2.460   0.965   0.204
   20EMI    H09  366   2.092   0.971   0.402
   20EMI    H08  367   2.265   0.812   0.540
   20EMI    C05  368   2.515   0.784   0.404
   20EMI    H0B  369   2.584   0.845   0.459
   20EMI    H0C  370   2.485   0.697   0.461
   20EMI    H0D  371   2.561   0.754   0.311
   20EMI    N00  372   2.395   0.862   0.375
   20EMI    C06  373   2.210   1.083   0.169
   20EMI    H0F  374   2.146   1.031   0.100
   20EMI    C0N  375   2.147   1.209   0.222
   20EMI    H0O  376   2.115   1.272   0.140
   20EMI    H0P  377   2.061   1.188   0.284
   20EMI    H0Q  378   2.218   1.270   0.277
   20EMI    N02  379   2.260   0.989   0.270
   20EMI    H0E  380   2.300   1.111   0.119
   21EMI    C01  381   4.644   0.464   2.174
   21EMI    C04  382   4.475   0.587   2.118
   21EMI    C03  383   4.585   0.660   2.100
   21EMI    H07  384   4.702   0.378   2.198
   21EMI    H09  385   4.373   0.612   2.100
   21EMI    H08  386   4.591   0.760   2.063
   21EMI    C05  387   4.834   0.615   2.123
   21EMI    H0B  388   4.888   0.523   2.109
   21EMI    H0C  389   4.848   0.678   2.037
   21EMI    H0D  390   4.864   0.664   2.215
   21EMI    N00  391   4.692   0.581   2.134
   21EMI    C06  392   4.424   0.356   2.215
   21EMI    H0F  393   4.416   0.355   2.322
   21EMI    C0N  394   4.286   0.371   2.159
   21EMI    H0O  395   4.225   0.285   2.182
   21EMI    H0P  396   4.240   0.458   2.205
   21EMI    H0Q  397   4.289   0.384   2.052
   21EMI    N02  398   4.513   0.467   2.175
   21EMI    H0E  399   4.462   0.265   2.172
   22EMI    C01  400   1.549   2.483   3.402
   22EMI    C04  401   1.585   2.669   3.295
   22EMI    C03  402   1.682   2.584   3.263
   22EMI    H07  403   1.512   2.412   3.472
   22EMI    H09  404   1.577   2.774   3.277
   22EMI    H08  405   1.773   2.602   3.211
   22EMI    C05  406   1.738   2.345   3.328
   22EMI    H0B  407   1.678   2.261   3.363
   22EMI    H0C  408   1.776   2.326   3.230
   22EMI    H0D  409   1.818   2.357   3.400
   22EMI    N00  410   1.657   2.466   3.330
   22EMI    C06  411   1.374   2.653   3.434
   22EMI    H0F  412   1.397   2.723   3.513
   22EMI    C0N  413   1.280   2.710   3.330
   22EMI    H0O  414   1.184   2.730   3.375
   22EMI    H0P  415   1.316   2.802   3.286
   22EMI    H0Q  416   1.263   2.640   3.251
   22EMI    N02  417   1.500   2.602   3.380
   22EMI    H0E  418   1.328   2.566   3.477
   23EMI    C01  419   1.714   4.157   2.678
   23EMI    C04  420   1.558   4.022   2.748
   23EMI    C03  421   1.499   4.134   2.705
   23EMI    H07  422   1.809   4.197   2.650
   23EMI    H09  423   1.513   3.932   2.786
   23EMI    H08  424   1.395   4.155   2.697
   23EMI    C05  425   1.582   4.360   2.626
   23EMI    H0B  426   1.665   4.391   2.565
   23EMI    H0C  427   1.490   4.370   2.571
   23EMI    H0D  428   1.579   4.424   2.713
   23EMI    N00  429   1.599   4.221   2.668
   23EMI    C06  430   1.790   3.928   2.741
   23EMI    H0F  431   1.788   3.900   2.845
   23EMI    C0N  432   1.758   3.811   2.651
   23EMI    H0O  433   1.847   3.759   2.618
   23EMI    H0P  434   1.694   3.739   2.701
   23EMI    H0Q  435   1.704   3.846   2.564
   23EMI    N02  436   1.692   4.036   2.725
   23EMI    H0E  437   1.887   3.968   2.716
   24EMI    C01  438   3.139   0.311   2.731
   24EMI    C04  439   3.354   0.305   2.757
   24EMI    C03  440   3.313   0.180   2.737
   24EMI    H07  441   3.039   0.348   2.716
   24EMI    H09  442   3.454   0.341   2.773
   24EMI    H08  443   3.370   0.090   2.733
   24EMI    C05  444   3.088   0.076   2.682
   24EMI    H0B  445   2.989   0.116   2.665
   24EMI    H0C  446   3.123   0.039   2.588
   24EMI    H0D  447   3.086   5.044   2.757
   24EMI    N00  448   3.176   0.186   2.720
   24EMI    C06  449   3.242   0.532   2.772
   24EMI    H0F  450   3.262   0.557   2.875
   24EMI    C0N  451   3.338   0.598   2.679
   24EMI    H0O  452   3.346   0.702   2.703
   24EMI    H0P  453   3.434   0.550   2.687
   24EMI    H0Q  454   3.305   0.592   2.577
   24EMI    N02  455   3.243   0.386   2.758
   24EMI    H0E  456   3.144   0.569   2.744
   25EMI    C01  457   4.094   4.248   4.755
   25EMI    C04  458   3.999   4.404   4.874
   25EMI    C03  459   3.943   4.288   4.907
   25EMI    H07  460   4.165   4.199   4.692
   25EMI    H09  461   3.985   4.501   4.918
   25EMI    H08  462   3.873   4.267   4.985
   25EMI    C05  463   3.979   4.045   4.847
   25EMI    H0B  464   4.015   4.014   4.945
   25EMI    H0C  465   3.874   4.024   4.839
   25EMI    H0D  466   4.033   3.990   4.772
   25EMI    N00  467   4.005   4.190   4.833
   25EMI    C06  468   4.183   4.478   4.712
   25EMI    H0F  469   4.164   4.482   4.606
   25EMI    C0N  470   4.171   4.616   4.775
   25EMI    H0O  471   4.244   4.683   4.731
   25EMI    H0P  472   4.073   4.659   4.761
   25EMI    H0Q  473   4.193   4.611   4.881
   25EMI    N02  474   4.094   4.379   4.776
   25EMI    H0E  475   4.286   4.449   4.728
   26EMI    C01  476   2.117   3.854   3.353
   26EMI    C04  477   2.004   3.677   3.295
   26EMI    C03  478   1.928   3.784   3.273
   26EMI    H07  479   2.194   3.918   3.392
   26EMI    H09  480   1.978   3.574   3.284
   26EMI    H08  481   1.826   3.788   3.243
   26EMI    C05  482   1.954   4.033   3.296
   26EMI    H0B  483   2.029   4.098   3.256
   26EMI    H0C  484   1.864   4.033   3.235
   26EMI    H0D  485   1.924   4.064   3.394
   26EMI    N00  486   2.001   3.895   3.307
   26EMI    C06  487   2.240   3.641   3.380
   26EMI    H0F  488   2.232   3.607   3.482
   26EMI    C0N  489   2.250   3.523   3.287
   26EMI    H0O  490   2.336   3.462   3.311
   26EMI    H0P  491   2.164   3.459   3.298
   26EMI    H0Q  492   2.257   3.552   3.183
   26EMI    N02  493   2.122   3.723   3.349
   26EMI    H0E  494   2.326   3.702   3.367
   27EMI    C01  495   1.103   2.366   2.655
   27EMI    C04  496   1.254   2.506   2.582
   27EMI    C03  497   1.137   2.569   2.583
   27EMI    H07  498   1.056   2.278   2.694
   27EMI    H09  499   1.351   2.539   2.554
   27EMI    H08  500   1.119   2.670   2.559
   27EMI    C05  501   0.901   2.509   2.659
   27EMI    H0B  502   0.865   2.437   2.732
   27EMI    H0C  503   0.886   2.607   2.700
   27EMI    H0D  504   0.846   2.497   2.568
   27EMI    N00  505   1.043   2.480   2.633
   27EMI    C06  506   1.336   2.278   2.632
   27EMI    H0F  507   1.375   2.259   2.533
   27EMI    C0N  508   1.438   2.328   2.731
   27EMI    H0O  509   1.503   2.248   2.763
   27EMI    H0P  510   1.499   2.407   2.689
   27EMI    H0Q  511   1.386   2.368   2.817
   27EMI    N02  512   1.230   2.377   2.622
   27EMI    H0E  513   1.290   2.187   2.665
   28EMI    C01  514   2.352   1.963   2.762
   28EMI    C04  515   2.182   2.097   2.778
   28EMI    C03  516   2.137   1.975   2.748
   28EMI    H07  517   2.450   1.922   2.772
   28EMI    H09  518   2.127   2.185   2.800
   28EMI    H08  519   2.038   1.938   2.738
   28EMI    C05  520   2.241   1.748   2.703
   28EMI    H0B  521   2.330   1.698   2.736
   28EMI    H0C  522   2.156   1.705   2.753
   28EMI    H0D  523   2.229   1.730   2.598
   28EMI    N00  524   2.245   1.891   2.735
   28EMI    C06  525   2.413   2.190   2.839
   28EMI    H0F  526   2.475   2.222   2.757
   28EMI    C0N  527   2.345   2.312   2.899
   28EMI    H0O  528   2.416   2.376   2.949
   28EMI    H0P  529   2.296   2.370   2.823
   28EMI    H0Q  530   2.272   2.282   2.973
   28EMI    N02  531   2.319   2.087   2.790
   28EMI    H0E  532   2.471   2.145   2.919
   29EMI    C01  533   0.408   2.895   0.260
   29EMI    C04  534   0.480   2.735   0.132
   29EMI    C03  535   0.581   2.773   0.210
   29EMI    H07  536   0.345   2.970   0.304
   29EMI    H09  537   0.478   2.664   0.052
   29EMI    H08  538   0.682   2.741   0.213
   29EMI    C05  539   0.616   2.946   0.389
   29EMI    H0B  540   0.558   2.967   0.478
   29EMI    H0C  541   0.704   2.890   0.416
   29EMI    H0D  542   0.648   3.040   0.345
   29EMI    N00  543   0.534   2.874   0.291
   29EMI    C06  544   0.237   2.798   0.103
   29EMI    H0F  545   0.243   2.826   5.043
   29EMI    C0N  546   0.182   2.658   0.122
   29EMI    H0O  547   0.078   2.653   0.091
   29EMI    H0P  548   0.236   2.587   0.061
   29EMI    H0Q  549   0.188   2.626   0.226
   29EMI    N02  550   0.371   2.813   0.163
   29EMI    H0E  551   0.173   2.871   0.149
   30EMI    C01  552   0.724   2.251   2.150
   30EMI    C04  553   0.619   2.088   2.051
   30EMI    C03  554   0.529   2.181   2.086
   30EMI    H07  555   0.801   2.305   2.200
   30EMI    H09  556   0.600   1.993   2.009
   30EMI    H08  557   0.423   2.183   2.079
   30EMI    C05  558   0.531   2.386   2.226
   30EMI    H0B  559   0.596   2.472   2.224
   30EMI    H0C  560   0.434   2.409   2.183
   30EMI    H0D  561   0.514   2.355   2.328
   30EMI    N00  562   0.596   2.279   2.153
   30EMI    C06  563   0.869   2.059   2.092
   30EMI    H0F  564   0.884   2.015   2.190
   30EMI    C0N  565   0.866   1.951   1.986
   30EMI    H0O  566   0.958   1.894   1.987
   30EMI    H0P  567   0.788   1.881   2.010
   30EMI    H0Q  568   0.851   1.991   1.887
   30EMI    N02  569   0.741   2.132   2.098
   30EMI    H0E  570   0.949   2.128   2.074
   31EMI    C01  571   3.920   1.006   2.171
   31EMI    C04  572   3.910   1.186   2.291
   31EMI    C03  573   3.792   1.126   2.300
   31EMI    H07  574   3.959   0.927   2.110
   31EMI    H09  575   3.947   1.266   2.350
   31EMI    H08  576   3.708   1.149   2.361
   31EMI    C05  577   3.681   0.938   2.177
   31EMI    H0B  578   3.717   0.843   2.140
   31EMI    H0C  579   3.615   0.924   2.259
   31EMI    H0D  580   3.626   0.988   2.099
   31EMI    N00  581   3.797   1.017   2.217
   31EMI    C06  582   4.120   1.155   2.149
   31EMI    H0F  583   4.120   1.143   2.042
   31EMI    C0N  584   4.152   1.302   2.179
   31EMI    H0O  585   4.095   1.368   2.117
   31EMI    H0P  586   4.134   1.328   2.281
   31EMI    H0Q  587   4.256   1.321   2.161
   31EMI    N02  588   3.988   1.114   2.203
   31EMI    H0E  589   4.194   1.091   2.195
   32EMI    C01  590   1.056   2.802   3.978
   32EMI    C04  591   1.238   2.890   4.054
   32EMI    C03  592   1.169   2.846   4.158
   32EMI    H07  593   0.979   2.765   3.913
   32EMI    H09  594   1.335   2.934   4.048
   32EMI    H08  595   1.196   2.844   4.262
   32EMI    C05  596   0.945   2.729   4.188
   32EMI    H0B  597   0.932   2.627   4.155
   32EMI    H0C  598   0.971   2.729   4.293
   32EMI    H0D  599   0.853   2.782   4.173
   32EMI    N00  600   1.053   2.791   4.109
   32EMI    C06  601   1.198   2.921   3.807
   32EMI    H0F  602   1.105   2.946   3.758
   32EMI    C0N  603   1.282   3.048   3.816
   32EMI    H0O  604   1.276   3.102   3.723
   32EMI    H0P  605   1.251   3.114   3.895
   32EMI    H0Q  606   1.386   3.023   3.832
   32EMI    N02  607   1.165   2.865   3.940
   32EMI    H0E  608   1.253   2.848   3.750
   33EMI    C01  609   4.519   3.403   3.044
   33EMI    C04  610   4.523   3.565   2.899
   33EMI    C03  611   4.428   3.593   2.988
   33EMI    H07  612   4.548   3.316   3.100
   33EMI    H09  613   4.556   3.618   2.815
   33EMI    H08  614   4.360   3.675   2.994
   33EMI    C05  615   4.345   3.485   3.201
   33EMI    H0B  616   4.333   3.383   3.232
   33EMI    H0C  617   4.396   3.540   3.279
   33EMI    H0D  618   4.250   3.531   3.183
   33EMI    N00  619   4.426   3.489   3.079
   33EMI    C06  620   4.727   3.416   2.909
   33EMI    H0F  621   4.728   3.343   2.830
   33EMI    C0N  622   4.814   3.537   2.877
   33EMI    H0O  623   4.913   3.505   2.848
   33EMI    H0P  624   4.777   3.599   2.797
   33EMI    H0Q  625   4.828   3.599   2.965
   33EMI    N02  626   4.588   3.452   2.944
   33EMI    H0E  627   4.769   3.373   2.999
   34EMI    C01  628   3.952   3.377   0.931
   34EMI    C04  629   3.858   3.373   0.736
   34EMI    C03  630   3.968   3.298   0.730
   34EMI    H07  631   3.969   3.395   1.035
   34EMI    H09  632   3.785   3.394   0.661
   34EMI    H08  633   4.006   3.242   0.648
   34EMI    C05  634   4.164   3.253   0.889
   34EMI    H0B  635   4.189   3.283   0.990
   34EMI    H0C  636   4.164   3.145   0.888
   34EMI    H0D  637   4.241   3.292   0.825
   34EMI    N00  638   4.032   3.308   0.853
   34EMI    C06  639   3.741   3.510   0.913
   34EMI    H0F  640   3.752   3.607   0.867
   34EMI    C0N  641   3.605   3.448   0.889
   34EMI    H0O  642   3.528   3.504   0.940
   34EMI    H0P  643   3.580   3.446   0.783
   34EMI    H0Q  644   3.601   3.347   0.927
   34EMI    N02  645   3.850   3.425   0.863
   34EMI    H0E  646   3.757   3.522   1.019
   35EMI    C01  647   4.685   1.823   4.800
   35EMI    C04  648   4.576   1.659   4.892
   35EMI    C03  649   4.706   1.631   4.899
   35EMI    H07  650   4.708   1.915   4.749
   35EMI    H09  651   4.491   1.603   4.928
   35EMI    H08  652   4.754   1.545   4.941
   35EMI    C05  653   4.919   1.738   4.808
   35EMI    H0B  654   4.953   1.840   4.814
   35EMI    H0C  655   4.971   1.676   4.880
   35EMI    H0D  656   4.938   1.700   4.708
   35EMI    N00  657   4.774   1.733   4.835
   35EMI    C06  658   4.437   1.846   4.793
   35EMI    H0F  659   4.390   1.797   4.709
   35EMI    C0N  660   4.346   1.850   4.913
   35EMI    H0O  661   4.266   1.921   4.897
   35EMI    H0P  662   4.301   1.753   4.930
   35EMI    H0Q  663   4.399   1.879   5.003
   35EMI    N02  664   4.564   1.778   4.823
   35EMI    H0E  665   4.462   1.948   4.765
   36EMI    C01  666   3.506   3.049   3.013
   36EMI    C04  667   3.492   3.021   3.227
   36EMI    C03  668   3.497   2.901   3.169
   36EMI    H07  669   3.499   3.095   2.918
   36EMI    H09  670   3.483   3.047   3.329
   36EMI    H08  671   3.494   2.804   3.213
   36EMI    C05  672   3.524   2.814   2.932
   36EMI    H0B  673   3.512   2.857   2.834
   36EMI    H0C  674   3.624   2.773   2.939
   36EMI    H0D  675   3.450   2.738   2.950
   36EMI    N00  676   3.510   2.919   3.034
   36EMI    C06  677   3.515   3.259   3.142
   36EMI    H0F  678   3.416   3.300   3.140
   36EMI    C0N  679   3.593   3.296   3.268
   36EMI    H0O  680   3.606   3.402   3.275
   36EMI    H0P  681   3.542   3.263   3.357
   36EMI    H0Q  682   3.691   3.252   3.269
   36EMI    N02  683   3.502   3.114   3.126
   36EMI    H0E  684   3.571   3.295   3.057
   37EMI    C01  685   1.116   1.942   3.395
   37EMI    C04  686   1.007   1.903   3.577
   37EMI    C03  687   1.130   1.852   3.591
   37EMI    H07  688   1.149   1.992   3.306
   37EMI    H09  689   0.929   1.914   3.648
   37EMI    H08  690   1.177   1.811   3.678
   37EMI    C05  691   1.336   1.842   3.443
   37EMI    H0B  692   1.346   1.832   3.336
   37EMI    H0C  693   1.398   1.925   3.474
   37EMI    H0D  694   1.372   1.754   3.492
   37EMI    N00  695   1.196   1.872   3.472
   37EMI    C06  696   0.890   2.047   3.405
   37EMI    H0F  697   0.846   2.006   3.315
   37EMI    C0N  698   0.778   2.060   3.506
   37EMI    H0O  699   0.698   2.120   3.464
   37EMI    H0P  700   0.736   1.964   3.533
   37EMI    H0Q  701   0.813   2.109   3.596
   37EMI    N02  702   0.999   1.959   3.452
   37EMI    H0E  703   0.931   2.146   3.386
   38EMI    C01  704   0.861   2.566   0.374
   38EMI    C04  705   1.065   2.545   0.443
   38EMI    C03  706   1.069   2.554   0.310
   38EMI    H07  707   0.755   2.578   0.373
   38EMI    H09  708   1.145   2.544   0.511
   38EMI    H08  709   1.152   2.563   0.243
   38EMI    C05  710   0.898   2.597   0.129
   38EMI    H0B  711   0.878   2.703   0.118
   38EMI    H0C  712   0.978   2.573   0.061
   38EMI    H0D  713   0.811   2.540   0.101
   38EMI    N00  714   0.938   2.568   0.267
   38EMI    C06  715   0.883   2.518   0.620
   38EMI    H0F  716   0.875   2.412   0.636
   38EMI    C0N  717   0.959   2.587   0.732
   38EMI    H0O  718   0.903   2.576   0.824
   38EMI    H0P  719   1.057   2.546   0.747
   38EMI    H0Q  720   0.968   2.693   0.712
   38EMI    N02  721   0.933   2.541   0.482
   38EMI    H0E  722   0.784   2.559   0.622
   39EMI    C01  723   3.841   1.807   1.009
   39EMI    C04  724   3.770   1.973   1.125
   39EMI    C03  725   3.685   1.953   1.025
   39EMI    H07  726   3.898   1.722   0.979
   39EMI    H09  727   3.770   2.046   1.200
   39EMI    H08  728   3.597   2.007   0.998
   39EMI    C05  729   3.670   1.787   0.833
   39EMI    H0B  730   3.734   1.716   0.785
   39EMI    H0C  731   3.581   1.737   0.866
   39EMI    H0D  732   3.645   1.863   0.760
   39EMI    N00  733   3.733   1.849   0.949
   39EMI    C06  734   3.991   1.873   1.194
   39EMI    H0F  735   4.074   1.913   1.140
   39EMI    C0N  736   3.972   1.943   1.327
   39EMI    H0O  737   4.051   1.918   1.397
   39EMI    H0P  738   3.975   2.050   1.313
   39EMI    H0Q  739   3.876   1.920   1.369
   39EMI    N02  740   3.875   1.887   1.106
   39EMI    H0E  741   4.006   1.768   1.206
   40EMI    C01  742   1.406   2.553   3.044
   40EMI    C04  743   1.461   2.350   3.091
   40EMI    C03  744   1.564   2.407   3.029
   40EMI    H07  745   1.353   2.646   3.044
   40EMI    H09  746   1.453   2.256   3.141
   40EMI    H08  747   1.663   2.371   3.015
   40EMI    C05  748   1.595   2.631   2.908
   40EMI    H0B  749   1.526   2.713   2.889
   40EMI    H0C  750   1.683   2.666   2.959
   40EMI    H0D  751   1.620   2.586   2.813
   40EMI    N00  752   1.523   2.534   2.991
   40EMI    C06  753   1.215   2.409   3.112
   40EMI    H0F  754   1.168   2.361   3.027
   40EMI    C0N  755   1.201   2.328   3.237
   40EMI    H0O  756   1.101   2.332   3.277
   40EMI    H0P  757   1.224   2.224   3.217
   40EMI    H0Q  758   1.267   2.367   3.313
   40EMI    N02  759   1.356   2.438   3.081
   40EMI    H0E  760   1.164   2.502   3.129
   41EMI    C01  761   4.643   3.043   0.720
   41EMI    C04  762   4.810   3.175   0.683
   41EMI    C03  763   4.854   3.050   0.669
   41EMI    H07  764   4.550   3.003   0.753
   41EMI    H09  765   4.866   3.266   0.681
   41EMI    H08  766   4.954   3.015   0.653
   41EMI    C05  767   4.749   2.822   0.704
   41EMI    H0B  768   4.650   2.783   0.722
   41EMI    H0C  769   4.791   2.780   0.615
   41EMI    H0D  770   4.810   2.798   0.790
   41EMI    N00  771   4.747   2.967   0.694
   41EMI    C06  772   4.594   3.280   0.772
   41EMI    H0F  773   4.658   3.338   0.838
   41EMI    C0N  774   4.526   3.364   0.666
   41EMI    H0O  775   4.423   3.336   0.654
   41EMI    H0P  776   4.526   3.468   0.698
   41EMI    H0Q  777   4.577   3.356   0.571
   41EMI    N02  778   4.677   3.169   0.722
   41EMI    H0E  779   4.521   3.243   0.842
   42EMI    C01  780   0.014   1.861   3.307
   42EMI    C04  781   4.896   1.718   3.281
   42EMI    C03  782   4.843   1.838   3.301
   42EMI    H07  783   0.111   1.906   3.309
   42EMI    H09  784   4.850   1.623   3.267
   42EMI    H08  785   4.742   1.872   3.307
   42EMI    C05  786   4.929   2.072   3.334
   42EMI    H0B  787   5.017   2.117   3.376
   42EMI    H0C  788   4.906   2.120   3.240
   42EMI    H0D  789   4.847   2.091   3.401
   42EMI    N00  790   4.946   1.928   3.317
   42EMI    C06  791   0.088   1.630   3.246
   42EMI    H0F  792   0.132   1.589   3.335
   42EMI    C0N  793   0.027   1.520   3.160
   42EMI    H0O  794   0.102   1.467   3.103
   42EMI    H0P  795   5.020   1.447   3.220
   42EMI    H0Q  796   5.003   1.560   3.088
   42EMI    N02  797   5.034   1.733   3.284
   42EMI    H0E  798   0.160   1.680   3.184
   43EMI    C01  799   1.468   4.701   2.478
   43EMI    C04  800   1.453   4.832   2.305
   43EMI    C03  801   1.365   4.733   2.289
   43EMI    H07  802   1.495   4.663   2.574
   43EMI    H09  803   1.472   4.916   2.242
   43EMI    H08  804   1.295   4.716   2.209
   43EMI    C05  805   1.290   4.536   2.431
   43EMI    H0B  806   1.314   4.500   2.529
   43EMI    H0C  807   1.187   4.566   2.431
   43EMI    H0D  808   1.305   4.458   2.357
   43EMI    N00  809   1.374   4.652   2.400
   43EMI    C06  810   1.605   4.906   2.493
   43EMI    H0F  811   1.690   4.930   2.431
   43EMI    C0N  812   1.521   5.025   2.533
   43EMI    H0O  813   1.558   0.024   2.624
   43EMI    H0P  814   1.520   0.054   2.454
   43EMI    H0Q  815   1.419   4.996   2.552
   43EMI    N02  816   1.517   4.810   2.425
   43EMI    H0E  817   1.642   4.857   2.582
   44EMI    C01  818   0.863   3.431   2.450
   44EMI    C04  819   0.791   3.299   2.607
   44EMI    C03  820   0.920   3.325   2.631
   44EMI    H07  821   0.865   3.494   2.364
   44EMI    H09  822   0.717   3.249   2.666
   44EMI    H08  823   0.977   3.301   2.717
   44EMI    C05  824   1.096   3.471   2.527
   44EMI    H0B  825   1.098   3.545   2.449
   44EMI    H0C  826   1.117   3.520   2.621
   44EMI    H0D  827   1.172   3.397   2.509
   44EMI    N00  828   0.963   3.410   2.532
   44EMI    C06  829   0.618   3.383   2.444
   44EMI    H0F  830   0.585   3.288   2.405
   44EMI    C0N  831   0.528   3.431   2.555
   44EMI    H0O  832   0.425   3.411   2.533
   44EMI    H0P  833   0.542   3.379   2.649
   44EMI    H0Q  834   0.537   3.538   2.571
   44EMI    N02  835   0.756   3.369   2.494
   44EMI    H0E  836   0.614   3.453   2.363
   45EMI    C01  837   3.571   4.508   0.337
   45EMI    C04  838   3.452   4.334   0.389
   45EMI    C03  839   3.519   4.305   0.277
   45EMI    H07  840   3.618   4.604   0.340
   45EMI    H09  841   3.387   4.271   0.445
   45EMI    H08  842   3.523   4.213   0.223
   45EMI    C05  843   3.648   4.440   0.111
   45EMI    H0B  844   3.731   4.509   0.120
   45EMI    H0C  845   3.684   4.347   0.072
   45EMI    H0D  846   3.576   4.483   0.045
   45EMI    N00  847   3.587   4.419   0.241
   45EMI    C06  848   3.424   4.535   0.539
   45EMI    H0F  849   3.329   4.578   0.511
   45EMI    C0N  850   3.407   4.444   0.659
   45EMI    H0O  851   3.341   4.489   0.731
   45EMI    H0P  852   3.365   4.348   0.636
   45EMI    H0Q  853   3.502   4.428   0.707
   45EMI    N02  854   3.482   4.464   0.423
   45EMI    H0E  855   3.492   4.614   0.567
   46EMI    C01  856   0.763   0.551   2.845
   46EMI    C04  857   0.879   0.597   2.667
   46EMI    C03  858   0.804   0.703   2.697
   46EMI    H07  859   0.724   0.499   2.931
   46EMI    H09  860   0.951   0.586   2.591
   46EMI    H08  861   0.798   0.799   2.651
   46EMI    C05  862   0.653   0.769   2.888
   46EMI    H0B  863   0.643   0.733   2.989
   46EMI    H0C  864   0.701   0.866   2.887
   46EMI    H0D  865   0.556   0.775   2.842
   46EMI    N00  866   0.735   0.675   2.812
   46EMI    C06  867   0.914   0.368   2.775
   46EMI    H0F  868   0.838   0.294   2.755
   46EMI    C0N  869   1.038   0.343   2.690
   46EMI    H0O  870   1.058   0.237   2.686
   46EMI    H0P  871   1.026   0.379   2.589
   46EMI    H0Q  872   1.124   0.391   2.734
   46EMI    N02  873   0.850   0.500   2.761
   46EMI    H0E  874   0.944   0.364   2.879
   47EMI    C01  875   1.420   0.612   4.593
   47EMI    C04  876   1.470   0.749   4.433
   47EMI    C03  877   1.494   0.625   4.389
   47EMI    H07  878   1.382   0.571   4.684
   47EMI    H09  879   1.473   0.841   4.380
   47EMI    H08  880   1.522   0.591   4.292
   47EMI    C05  881   1.483   0.395   4.492
   47EMI    H0B  882   1.410   0.346   4.555
   47EMI    H0C  883   1.476   0.354   4.393
   47EMI    H0D  884   1.582   0.376   4.527
   47EMI    N00  885   1.464   0.540   4.493
   47EMI    C06  886   1.388   0.855   4.646
   47EMI    H0F  887   1.476   0.907   4.679
   47EMI    C0N  888   1.294   0.947   4.569
   47EMI    H0O  889   1.253   1.025   4.632
   47EMI    H0P  890   1.349   0.995   4.490
   47EMI    H0Q  891   1.213   0.892   4.523
   47EMI    N02  892   1.429   0.740   4.563
   47EMI    H0E  893   1.337   0.813   4.731
   48EMI    C01  894   2.780   1.480   4.597
   48EMI    C04  895   2.826   1.577   4.410
   48EMI    C03  896   2.698   1.543   4.405
   48EMI    H07  897   2.787   1.438   4.695
   48EMI    H09  898   2.887   1.631   4.342
   48EMI    H08  899   2.626   1.565   4.329
   48EMI    C05  900   2.542   1.430   4.569
   48EMI    H0B  901   2.536   1.450   4.675
   48EMI    H0C  902   2.462   1.480   4.516
   48EMI    H0D  903   2.538   1.324   4.552
   48EMI    N00  904   2.670   1.481   4.524
   48EMI    C06  905   3.007   1.578   4.586
   48EMI    H0F  906   3.081   1.503   4.561
   48EMI    C0N  907   3.045   1.716   4.535
   48EMI    H0O  908   3.101   1.771   4.609
   48EMI    H0P  909   3.102   1.710   4.444
   48EMI    H0Q  910   2.957   1.776   4.518
   48EMI    N02  911   2.877   1.537   4.531
   48EMI    H0E  912   2.995   1.587   4.692
   49EMI    C01  913   2.149   0.676   3.935
   49EMI    C04  914   2.144   0.569   3.746
   49EMI    C03  915   2.129   0.699   3.719
   49EMI    H07  916   2.162   0.698   4.039
   49EMI    H09  917   2.146   0.486   3.678
   49EMI    H08  918   2.118   0.750   3.627
   49EMI    C05  919   2.141   0.910   3.857
   49EMI    H0B  920   2.162   0.934   3.960
   49EMI    H0C  921   2.220   0.949   3.794
   49EMI    H0D  922   2.047   0.954   3.829
   49EMI    N00  923   2.135   0.765   3.840
   49EMI    C06  924   2.172   0.432   3.961
   49EMI    H0F  925   2.078   0.398   4.001
   49EMI    C0N  926   2.243   0.325   3.882
   49EMI    H0O  927   2.256   0.235   3.940
   49EMI    H0P  928   2.187   0.299   3.793
   49EMI    H0Q  929   2.341   0.361   3.853
   49EMI    N02  930   2.151   0.556   3.884
   49EMI    H0E  931   2.237   0.462   4.041
   50EMI    C01  932   1.782   0.341   0.371
   50EMI    C04  933   1.770   0.482   0.537
   50EMI    C03  934   1.665   0.503   0.457
   50EMI    H07  935   1.809   0.258   0.310
   50EMI    H09  936   1.798   0.530   0.628
   50EMI    H08  937   1.583   0.571   0.467
   50EMI    C05  938   1.581   0.400   0.241
   50EMI    H0B  939   1.531   0.305   0.254
   50EMI    H0C  940   1.508   0.479   0.239
   50EMI    H0D  941   1.637   0.396   0.148
   50EMI    N00  942   1.675   0.415   0.352
   50EMI    C06  943   1.957   0.309   0.544
   50EMI    H0F  944   2.047   0.357   0.514
   50EMI    C0N  945   1.949   0.303   0.695
   50EMI    H0O  946   2.034   0.250   0.735
   50EMI    H0P  947   1.948   0.402   0.739
   50EMI    H0Q  948   1.860   0.251   0.725
   50EMI    N02  949   1.843   0.378   0.481
   50EMI    H0E  950   1.954   0.208   0.507
   51EMI    C01  951   2.168   2.751   2.604
   51EMI    C04  952   2.010   2.620   2.669
   51EMI    C03  953   2.123   2.553   2.682
   51EMI    H07  954   2.220   2.840   2.575
   51EMI    H09  955   1.911   2.593   2.696
   51EMI    H08  956   2.138   2.455   2.721
   51EMI    C05  957   2.364   2.593   2.624
   51EMI    H0B  958   2.423   2.676   2.587
   51EMI    H0C  959   2.399   2.568   2.723
   51EMI    H0D  960   2.373   2.507   2.560
   51EMI    N00  961   2.223   2.635   2.635
   51EMI    C06  962   1.933   2.833   2.566
   51EMI    H0F  963   1.912   2.818   2.462
   51EMI    C0N  964   1.808   2.819   2.651
   51EMI    H0O  965   1.744   2.904   2.638
   51EMI    H0P  966   1.750   2.731   2.625
   51EMI    H0Q  967   1.832   2.814   2.757
   51EMI    N02  968   2.037   2.740   2.611
   51EMI    H0E  969   1.970   2.932   2.578
   52EMI    C01  970   0.632   1.189   0.302
   52EMI    C04  971   0.486   1.306   0.191
   52EMI    C03  972   0.593   1.382   0.211
   52EMI    H07  973   0.681   1.108   0.352
   52EMI    H09  974   0.398   1.327   0.134
   52EMI    H08  975   0.619   1.480   0.179
   52EMI    C05  976   0.805   1.367   0.339
   52EMI    H0B  977   0.874   1.290   0.372
   52EMI    H0C  978   0.851   1.425   0.261
   52EMI    H0D  979   0.784   1.435   0.420
   52EMI    N00  980   0.681   1.311   0.288
   52EMI    C06  981   0.438   1.058   0.216
   52EMI    H0F  982   0.385   1.030   0.304
   52EMI    C0N  983   0.334   1.074   0.105
   52EMI    H0O  984   0.291   0.978   0.079
   52EMI    H0P  985   0.253   1.139   0.135
   52EMI    H0Q  986   0.377   1.116   0.015
   52EMI    N02  987   0.515   1.181   0.242
   52EMI    H0E  988   0.508   0.982   0.187
   53EMI    C01  989   1.547   4.227   1.117
   53EMI    C04  990   1.363   4.340   1.123
   53EMI    C03  991   1.334   4.215   1.154
   53EMI    H07  992   1.648   4.200   1.098
   53EMI    H09  993   1.297   4.424   1.119
   53EMI    H08  994   1.239   4.173   1.178
   53EMI    C05  995   1.459   3.998   1.147
   53EMI    H0B  996   1.555   3.972   1.184
   53EMI    H0C  997   1.380   3.956   1.208
   53EMI    H0D  998   1.453   3.962   1.045
   53EMI    N00  999   1.449   4.143   1.142
   53EMI    C06 1000   1.567   4.464   1.039
   53EMI    H0F 1001   1.572   4.458   0.931
   53EMI    C0N 1002   1.497   4.592   1.079
   53EMI    H0O 1003   1.557   4.679   1.057
   53EMI    H0P 1004   1.405   4.597   1.025
   53EMI    H0Q 1005   1.469   4.597   1.183
   53EMI    N02 1006   1.495   4.344   1.087
   53EMI    H0E 1007   1.666   4.462   1.083
   54EMI    C01 1008   3.203   0.318   3.433
   54EMI    C04 1009   3.253   0.328   3.642
   54EMI    C03 1010   3.292   0.443   3.586
   54EMI    H07 1011   3.166   0.281   3.340
   54EMI    H09 1012   3.260   0.297   3.744
   54EMI    H08 1013   3.337   0.528   3.632
   54EMI    C05 1014   3.297   0.532   3.349
   54EMI    H0B 1015   3.244   0.513   3.257
   54EMI    H0C 1016   3.270   0.630   3.383
   54EMI    H0D 1017   3.404   0.531   3.334
   54EMI    N00 1018   3.261   0.435   3.452
   54EMI    C06 1019   3.136   0.116   3.561
   54EMI    H0F 1020   3.211   0.048   3.597
   54EMI    C0N 1021   3.011   0.117   3.648
   54EMI    H0O 1022   2.955   0.026   3.637
   54EMI    H0P 1023   3.037   0.125   3.752
   54EMI    H0Q 1024   2.947   0.201   3.623
   54EMI    N02 1025   3.196   0.250   3.545
   54EMI    H0E 1026   3.109   0.082   3.463
   55EMI    C01 1027   4.138   4.703   3.772
   55EMI    C04 1028   3.924   4.712   3.736
   55EMI    C03 1029   3.970   4.836   3.737
   55EMI    H07 1030   4.239   4.669   3.788
   55EMI    H09 1031   3.825   4.680   3.713
   55EMI    H08 1032   3.921   4.929   3.717
   55EMI    C05 1033   4.196   4.942   3.745
   55EMI    H0B 1034   4.293   4.899   3.754
   55EMI    H0C 1035   4.189   4.991   3.649
   55EMI    H0D 1036   4.183   5.014   3.824
   55EMI    N00 1037   4.105   4.829   3.755
   55EMI    C06 1038   4.024   4.481   3.751
   55EMI    H0F 1039   3.993   4.443   3.847
   55EMI    C0N 1040   3.933   4.435   3.637
   55EMI    H0O 1041   3.936   4.327   3.625
   55EMI    H0P 1042   3.830   4.463   3.654
   55EMI    H0Q 1043   3.963   4.481   3.543
   55EMI    N02 1044   4.030   4.628   3.759
   55EMI    H0E 1045   4.126   4.449   3.730
   56EMI    C01 1046   3.177   3.644   3.576
   56EMI    C04 1047   3.335   3.499   3.611
   56EMI    C03 1048   3.258   3.501   3.719
   56EMI    H07 1049   3.117   3.722   3.535
   56EMI    H09 1050   3.423   3.442   3.590
   56EMI    H08 1051   3.264   3.445   3.810
   56EMI    C05 1052   3.043   3.617   3.783
   56EMI    H0B 1053   2.980   3.696   3.745
   56EMI    H0C 1054   2.981   3.529   3.797
   56EMI    H0D 1055   3.081   3.647   3.879
   56EMI    N00 1056   3.155   3.589   3.694
   56EMI    C06 1057   3.342   3.620   3.389
   56EMI    H0F 1058   3.442   3.655   3.408
   56EMI    C0N 1059   3.344   3.502   3.296
   56EMI    H0O 1060   3.408   3.521   3.212
   56EMI    H0P 1061   3.380   3.415   3.350
   56EMI    H0Q 1062   3.248   3.474   3.259
   56EMI    N02 1063   3.283   3.589   3.521
   56EMI    H0E 1064   3.287   3.703   3.347
   57EMI    C01 1065   4.417   1.471   2.453
   57EMI    C04 1066   4.442   1.304   2.590
   57EMI    C03 1067   4.510   1.276   2.479
   57EMI    H07 1068   4.386   1.564   2.410
   57EMI    H09 1069   4.418   1.241   2.672
   57EMI    H08 1070   4.554   1.182   2.449
   57EMI    C05 1071   4.555   1.397   2.261
   57EMI    H0B 1072   4.608   1.490   2.250
   57EMI    H0C 1073   4.620   1.313   2.245
   57EMI    H0D 1074   4.475   1.392   2.188
   57EMI    N00 1075   4.495   1.384   2.394
   57EMI    C06 1076   4.278   1.486   2.660
   57EMI    H0F 1077   4.183   1.438   2.648
   57EMI    C0N 1078   4.321   1.485   2.805
   57EMI    H0O 1079   4.245   1.534   2.865
   57EMI    H0P 1080   4.332   1.384   2.842
   57EMI    H0Q 1081   4.415   1.538   2.819
   57EMI    N02 1082   4.376   1.423   2.568
   57EMI    H0E 1083   4.268   1.588   2.629
   58EMI    C01 1084   0.369   0.005   3.554
   58EMI    C04 1085   0.535   4.987   3.430
   58EMI    C03 1086   0.423   4.972   3.360
   58EMI    H07 1087   0.311   0.038   3.637
   58EMI    H09 1088   0.633   4.958   3.399
   58EMI    H08 1089   0.408   4.932   3.263
   58EMI    C05 1090   0.177   5.005   3.402
   58EMI    H0B 1091   0.119   0.035   3.455
   58EMI    H0C 1092   0.168   5.018   3.295
   58EMI    H0D 1093   0.140   4.907   3.429
   58EMI    N00 1094   0.318   5.014   3.439
   58EMI    C06 1095   0.582   5.014   3.679
   58EMI    H0F 1096   0.552   4.928   3.737
   58EMI    C0N 1097   0.731   5.004   3.647
   58EMI    H0O 1098   0.789   0.008   3.723
   58EMI    H0P 1099   0.761   4.900   3.642
   58EMI    H0Q 1100   0.755   0.005   3.554
   58EMI    N02 1101   0.497   5.020   3.558
   58EMI    H0E 1102   0.565   0.060   3.735
   59EMI    C01 1103   2.847   0.890   0.143
   59EMI    C04 1104   3.044   0.954   0.210
   59EMI    C03 1105   2.975   1.063   0.178
   59EMI    H07 1106   2.761   0.831   0.117
   59EMI    H09 1107   3.143   0.946   0.249
   59EMI    H08 1108   3.001   1.168   0.182
   59EMI    C05 1109   2.741   1.108   0.096
   59EMI    H0B 1110   2.649   1.054   0.093
   59EMI    H0C 1111   2.734   1.188   0.166
   59EMI    H0D 1112   2.761   1.151  -0.001
   59EMI    N00 1113   2.851   1.021   0.135
   59EMI    C06 1114   2.989   0.709   0.241
   59EMI    H0F 1115   3.067   0.666   0.180
   59EMI    C0N 1116   3.028   0.713   0.387
   59EMI    H0O 1117   3.039   0.614   0.428
   59EMI    H0P 1118   3.123   0.764   0.399
   59EMI    H0Q 1119   2.956   0.768   0.445
   59EMI    N02 1120   2.961   0.845   0.192
   59EMI    H0E 1121   2.898   0.653   0.230
   60EMI    C01 1122   0.789   4.754   2.669
   60EMI    C04 1123   0.909   4.896   2.555
   60EMI    C03 1124   0.958   4.774   2.532
   60EMI    H07 1125   0.710   4.714   2.728
   60EMI    H09 1126   0.941   4.991   2.520
   60EMI    H08 1127   1.040   4.744   2.471
   60EMI    C05 1128   0.900   4.540   2.609
   60EMI    H0B 1129   0.818   4.490   2.558
   60EMI    H0C 1130   0.992   4.513   2.559
   60EMI    H0D 1131   0.904   4.505   2.711
   60EMI    N00 1132   0.882   4.685   2.606
   60EMI    C06 1133   0.702   4.987   2.669
   60EMI    H0F 1134   0.735   0.008   2.749
   60EMI    C0N 1135   0.672   0.018   2.541
   60EMI    H0O 1136   0.582   0.076   2.554
   60EMI    H0P 1137   0.753   0.083   2.515
   60EMI    H0Q 1138   0.656   4.995   2.459
   60EMI    N02 1139   0.802   4.882   2.641
   60EMI    H0E 1140   0.610   4.938   2.699
   61EMI    C01 1141   1.538   0.388   4.840
   61EMI    C04 1142   1.745   0.435   4.793
   61EMI    C03 1143   1.718   0.316   4.740
   61EMI    H07 1144   1.438   0.392   4.879
   61EMI    H09 1145   1.834   0.491   4.787
   61EMI    H08 1146   1.779   0.253   4.679
   61EMI    C05 1147   1.518   0.163   4.739
   61EMI    H0B 1148   1.410   0.174   4.750
   61EMI    H0C 1149   1.541   0.130   4.638
   61EMI    H0D 1150   1.553   0.093   4.812
   61EMI    N00 1151   1.587   0.287   4.772
   61EMI    C06 1152   1.619   0.608   4.928
   61EMI    H0F 1153   1.669   0.601   5.023
   61EMI    C0N 1154   1.675   0.722   4.843
   61EMI    H0O 1155   1.647   0.818   4.883
   61EMI    H0P 1156   1.783   0.717   4.840
   61EMI    H0Q 1157   1.641   0.715   4.741
   61EMI    N02 1158   1.632   0.478   4.860
   61EMI    H0E 1159   1.514   0.625   4.943
   62EMI    C01 1160   3.879   2.067   1.627
   62EMI    C04 1161   3.790   2.011   1.817
   62EMI    C03 1162   3.692   2.054   1.738
   62EMI    H07 1163   3.950   2.086   1.548
   62EMI    H09 1164   3.786   1.973   1.917
   62EMI    H08 1165   3.587   2.062   1.755
   62EMI    C05 1166   3.677   2.136   1.498
   62EMI    H0B 1167   3.743   2.141   1.413
   62EMI    H0C 1168   3.595   2.072   1.471
   62EMI    H0D 1169   3.637   2.236   1.513
   62EMI    N00 1170   3.749   2.087   1.616
   62EMI    C06 1171   4.044   2.007   1.806
   62EMI    H0F 1172   4.086   2.099   1.842
   62EMI    C0N 1173   4.046   1.904   1.917
   62EMI    H0O 1174   4.145   1.861   1.929
   62EMI    H0P 1175   4.017   1.947   2.012
   62EMI    H0Q 1176   3.978   1.823   1.894
   62EMI    N02 1177   3.909   2.029   1.750
   62EMI    H0E 1178   4.104   1.966   1.725
   63EMI    C01 1179   2.036   3.994   2.986
   63EMI    C04 1180   2.239   4.073   2.967
   63EMI    C03 1181   2.154   4.175   2.975
   63EMI    H07 1182   1.955   3.925   3.001
   63EMI    H09 1183   2.345   4.073   2.958
   63EMI    H08 1184   2.177   4.279   2.975
   63EMI    C05 1185   1.903   4.206   2.984
   63EMI    H0B 1186   1.815   4.143   2.982
   63EMI    H0C 1187   1.900   4.265   3.075
   63EMI    H0D 1188   1.901   4.275   2.901
   63EMI    N00 1189   2.026   4.125   2.981
   63EMI    C06 1190   2.222   3.826   2.997
   63EMI    H0F 1191   2.248   3.782   2.902
   63EMI    C0N 1192   2.343   3.836   3.087
   63EMI    H0O 1193   2.371   3.737   3.120
   63EMI    H0P 1194   2.427   3.878   3.035
   63EMI    H0Q 1195   2.323   3.897   3.175
   63EMI    N02 1196   2.163   3.959   2.976
   63EMI    H0E 1197   2.150   3.765   3.049
   64EMI    C01 1198   2.612   0.388   1.587
   64EMI    C04 1199   2.664   0.189   1.660
   64EMI    C03 1200   2.707   0.279   1.749
   64EMI    H07 1201   2.574   0.468   1.529
   64EMI    H09 1202   2.674   0.083   1.661
   64EMI    H08 1203   2.761   0.263   1.840
   64EMI    C05 1204   2.694   0.534   1.770
   64EMI    H0B 1205   2.653   0.616   1.715
   64EMI    H0C 1206   2.649   0.533   1.869
   64EMI    H0D 1207   2.800   0.551   1.783
   64EMI    N00 1208   2.673   0.405   1.703
   64EMI    C06 1209   2.529   0.199   1.446
   64EMI    H0F 1210   2.598   0.156   1.375
   64EMI    C0N 1211   2.429   0.097   1.495
   64EMI    H0O 1212   2.341   0.095   1.432
   64EMI    H0P 1213   2.473   5.043   1.497
   64EMI    H0Q 1214   2.398   0.119   1.595
   64EMI    N02 1215   2.604   0.260   1.558
   64EMI    H0E 1216   2.473   0.280   1.400
   65EMI    C01 1217   0.572   2.538   1.706
   65EMI    C04 1218   0.734   2.487   1.572
   65EMI    C03 1219   0.702   2.615   1.551
   65EMI    H07 1220   0.496   2.531   1.781
   65EMI    H09 1221   0.809   2.429   1.525
   65EMI    H08 1222   0.743   2.689   1.486
   65EMI    C05 1223   0.534   2.776   1.643
   65EMI    H0B 1224   0.469   2.784   1.728
   65EMI    H0C 1225   0.607   2.854   1.652
   65EMI    H0D 1226   0.474   2.793   1.555
   65EMI    N00 1227   0.600   2.646   1.637
   65EMI    C06 1228   0.658   2.305   1.733
   65EMI    H0F 1229   0.563   2.258   1.713
   65EMI    C0N 1230   0.769   2.218   1.676
   65EMI    H0O 1231   0.776   2.125   1.731
   65EMI    H0P 1232   0.749   2.192   1.573
   65EMI    H0Q 1233   0.866   2.266   1.680
   65EMI    N02 1234   0.653   2.440   1.673
   65EMI    H0E 1235   0.672   2.318   1.840
   66EMI    C01 1236   2.561   1.758   1.608
   66EMI    C04 1237   2.375   1.653   1.642
   66EMI    C03 1238   2.419   1.619   1.521
   66EMI    H07 1239   2.648   1.817   1.624
   66EMI    H09 1240   2.286   1.622   1.692
   66EMI    H08 1241   2.375   1.553   1.450
   66EMI    C05 1242   2.626   1.666   1.385
   66EMI    H0B 1243   2.720   1.713   1.403
   66EMI    H0C 1244   2.646   1.561   1.372
   66EMI    H0D 1245   2.583   1.704   1.294
   66EMI    N00 1246   2.538   1.684   1.501
   66EMI    C06 1247   2.452   1.804   1.830
   66EMI    H0F 1248   2.429   1.909   1.816
   66EMI    C0N 1249   2.345   1.743   1.919
   66EMI    H0O 1250   2.336   1.799   2.012
   66EMI    H0P 1251   2.247   1.743   1.874
   66EMI    H0Q 1252   2.369   1.641   1.946
   66EMI    N02 1253   2.463   1.743   1.696
   66EMI    H0E 1254   2.546   1.787   1.880
   67EMI    C01 1255   2.034   4.844   1.765
   67EMI    C04 1256   2.108   4.640   1.781
   67EMI    C03 1257   2.013   4.657   1.873
   67EMI    H07 1258   2.019   4.946   1.734
   67EMI    H09 1259   2.168   4.554   1.763
   67EMI    H08 1260   1.979   4.590   1.948
   67EMI    C05 1261   1.877   4.858   1.952
   67EMI    H0B 1262   1.777   4.855   1.912
   67EMI    H0C 1263   1.882   4.821   2.053
   67EMI    H0D 1264   1.907   4.962   1.956
   67EMI    N00 1265   1.971   4.789   1.864
   67EMI    C06 1266   2.222   4.791   1.614
   67EMI    H0F 1267   2.308   4.835   1.662
   67EMI    C0N 1268   2.257   4.668   1.533
   67EMI    H0O 1269   2.325   4.688   1.452
   67EMI    H0P 1270   2.308   4.598   1.598
   67EMI    H0Q 1271   2.169   4.619   1.494
   67EMI    N02 1272   2.125   4.761   1.719
   67EMI    H0E 1273   2.172   4.862   1.552
   68EMI    C01 1274   3.798   1.113   0.586
   68EMI    C04 1275   3.692   1.300   0.548
   68EMI    C03 1276   3.793   1.326   0.632
   68EMI    H07 1277   3.825   1.010   0.591
   68EMI    H09 1278   3.622   1.367   0.504
   68EMI    H08 1279   3.827   1.419   0.672
   68EMI    C05 1280   3.940   1.178   0.776
   68EMI    H0B 1281   3.996   1.088   0.756
   68EMI    H0C 1282   4.008   1.261   0.787
   68EMI    H0D 1283   3.882   1.162   0.866
   68EMI    N00 1284   3.851   1.205   0.664
   68EMI    C06 1285   3.586   1.085   0.460
   68EMI    H0F 1286   3.519   1.045   0.535
   68EMI    C0N 1287   3.511   1.168   0.359
   68EMI    H0O 1288   3.432   1.109   0.314
   68EMI    H0P 1289   3.461   1.253   0.404
   68EMI    H0Q 1290   3.576   1.205   0.281
   68EMI    N02 1291   3.691   1.163   0.529
   68EMI    H0E 1292   3.635   1.004   0.408
   69EMI    C01 1293   3.225   4.287   0.909
   69EMI    C04 1294   3.419   4.270   1.003
   69EMI    C03 1295   3.410   4.174   0.910
   69EMI    H07 1296   3.126   4.317   0.885
   69EMI    H09 1297   3.499   4.296   1.067
   69EMI    H08 1298   3.480   4.101   0.878
   69EMI    C05 1299   3.231   4.107   0.741
   69EMI    H0B 1300   3.124   4.109   0.742
   69EMI    H0C 1301   3.264   4.150   0.647
   69EMI    H0D 1302   3.266   4.006   0.747
   69EMI    N00 1303   3.286   4.188   0.850
   69EMI    C06 1304   3.257   4.444   1.098
   69EMI    H0F 1305   3.203   4.393   1.175
   69EMI    C0N 1306   3.365   4.528   1.163
   69EMI    H0O 1307   3.333   4.567   1.258
   69EMI    H0P 1308   3.458   4.476   1.180
   69EMI    H0Q 1309   3.386   4.616   1.102
   69EMI    N02 1310   3.299   4.338   1.004
   69EMI    H0E 1311   3.197   4.515   1.043
   70EMI    C01 1312   1.878   3.354   2.674
   70EMI    C04 1313   2.000   3.528   2.633
   70EMI    C03 1314   2.004   3.449   2.526
   70EMI    H07 1315   1.821   3.283   2.727
   70EMI    H09 1316   2.049   3.621   2.649
   70EMI    H08 1317   2.058   3.459   2.435
   70EMI    C05 1318   1.916   3.218   2.469
   70EMI    H0B 1319   1.868   3.140   2.526
   70EMI    H0C 1320   1.858   3.233   2.381
   70EMI    H0D 1321   2.015   3.185   2.441
   70EMI    N00 1322   1.927   3.338   2.553
   70EMI    C06 1323   1.903   3.503   2.870
   70EMI    H0F 1324   1.951   3.429   2.933
   70EMI    C0N 1325   1.961   3.638   2.903
   70EMI    H0O 1326   1.958   3.653   3.010
   70EMI    H0P 1327   2.062   3.649   2.868
   70EMI    H0Q 1328   1.899   3.714   2.858
   70EMI    N02 1329   1.923   3.464   2.729
   70EMI    H0E 1330   1.797   3.507   2.889
   71EMI    C01 1331   1.594   4.594   3.339
   71EMI    C04 1332   1.785   4.697   3.345
   71EMI    C03 1333   1.742   4.681   3.471
   71EMI    H07 1334   1.510   4.541   3.303
   71EMI    H09 1335   1.872   4.745   3.306
   71EMI    H08 1336   1.786   4.712   3.563
   71EMI    C05 1337   1.540   4.566   3.577
   71EMI    H0B 1338   1.462   4.503   3.539
   71EMI    H0C 1339   1.601   4.508   3.644
   71EMI    H0D 1340   1.497   4.649   3.631
   71EMI    N00 1341   1.622   4.614   3.465
   71EMI    C06 1342   1.694   4.633   3.116
   71EMI    H0F 1343   1.672   4.728   3.069
   71EMI    C0N 1344   1.826   4.576   3.069
   71EMI    H0O 1345   1.811   4.506   2.988
   71EMI    H0P 1346   1.888   4.656   3.031
   71EMI    H0Q 1347   1.879   4.526   3.149
   71EMI    N02 1348   1.688   4.645   3.262
   71EMI    H0E 1349   1.618   4.561   3.089
   72EMI    C01 1350   2.559   2.235   4.844
   72EMI    C04 1351   2.668   2.409   4.774
   72EMI    C03 1352   2.756   2.325   4.829
   72EMI    H07 1353   2.480   2.165   4.864
   72EMI    H09 1354   2.687   2.502   4.725
   72EMI    H08 1355   2.864   2.331   4.835
   72EMI    C05 1356   2.740   2.091   4.925
   72EMI    H0B 1357   2.664   2.015   4.916
   72EMI    H0C 1358   2.825   2.061   4.864
   72EMI    H0D 1359   2.771   2.104   5.027
   72EMI    N00 1360   2.686   2.214   4.869
   72EMI    C06 1361   2.414   2.413   4.752
   72EMI    H0F 1362   2.356   2.426   4.839
   72EMI    C0N 1363   2.432   2.546   4.689
   72EMI    H0O 1364   2.339   2.596   4.668
   72EMI    H0P 1365   2.493   2.614   4.747
   72EMI    H0Q 1366   2.483   2.528   4.596
   72EMI    N02 1367   2.543   2.352   4.788
   72EMI    H0E 1368   2.362   2.352   4.680
   73EMI    C01 1369   4.371   3.958   4.766
   73EMI    C04 1370   4.231   3.795   4.737
   73EMI    C03 1371   4.277   3.788   4.861
   73EMI    H07 1372   4.439   4.039   4.746
   73EMI    H09 1373   4.164   3.729   4.686
   73EMI    H08 1374   4.258   3.715   4.937
   73EMI    C05 1375   4.462   3.904   4.991
   73EMI    H0B 1376   4.461   4.007   5.025
   73EMI    H0C 1377   4.434   3.839   0.027
   73EMI    H0D 1378   4.562   3.881   4.958
   73EMI    N00 1379   4.370   3.888   4.877
   73EMI    C06 1380   4.278   3.945   4.535
   73EMI    H0F 1381   4.332   3.872   4.477
   73EMI    C0N 1382   4.136   3.962   4.488
   73EMI    H0O 1383   4.133   3.985   4.383
   73EMI    H0P 1384   4.082   3.870   4.503
   73EMI    H0Q 1385   4.085   4.041   4.542
   73EMI    N02 1386   4.293   3.903   4.677
   73EMI    H0E 1387   4.332   4.038   4.526
   74EMI    C01 1388   1.249   4.707   0.623
   74EMI    C04 1389   1.032   4.701   0.637
   74EMI    C03 1390   1.081   4.586   0.686
   74EMI    H07 1391   1.349   4.740   0.608
   74EMI    H09 1392   0.931   4.734   0.626
   74EMI    H08 1393   1.028   4.502   0.727
   74EMI    C05 1394   1.316   4.492   0.726
   74EMI    H0B 1395   1.404   4.541   0.763
   74EMI    H0C 1396   1.274   4.432   0.805
   74EMI    H0D 1397   1.347   4.425   0.646
   74EMI    N00 1398   1.219   4.590   0.676
   74EMI    C06 1399   1.138   4.922   0.571
   74EMI    H0F 1400   1.134   4.936   0.465
   74EMI    C0N 1401   1.021   4.995   0.632
   74EMI    H0O 1402   1.030   0.057   0.616
   74EMI    H0P 1403   0.928   4.965   0.586
   74EMI    H0Q 1404   1.014   4.977   0.739
   74EMI    N02 1405   1.141   4.778   0.601
   74EMI    H0E 1406   1.226   4.965   0.616
   75EMI    C01 1407   1.610   1.634   3.675
   75EMI    C04 1408   1.760   1.608   3.519
   75EMI    C03 1409   1.741   1.737   3.536
   75EMI    H07 1410   1.537   1.616   3.751
   75EMI    H09 1411   1.828   1.562   3.451
   75EMI    H08 1412   1.788   1.819   3.485
   75EMI    C05 1413   1.615   1.880   3.700
   75EMI    H0B 1414   1.610   1.873   3.807
   75EMI    H0C 1415   1.693   1.952   3.674
   75EMI    H0D 1416   1.522   1.920   3.662
   75EMI    N00 1417   1.650   1.753   3.638
   75EMI    C06 1418   1.661   1.396   3.614
   75EMI    H0F 1419   1.557   1.371   3.598
   75EMI    C0N 1420   1.741   1.329   3.506
   75EMI    H0O 1421   1.730   1.222   3.511
   75EMI    H0P 1422   1.712   1.361   3.407
   75EMI    H0Q 1423   1.846   1.350   3.519
   75EMI    N02 1424   1.676   1.542   3.606
   75EMI    H0E 1425   1.699   1.360   3.707
   76EMI    C01 1426   2.046   3.918   4.073
   76EMI    C04 1427   2.204   3.802   3.980
   76EMI    C03 1428   2.089   3.735   3.965
   76EMI    H07 1429   1.996   3.993   4.130
   76EMI    H09 1430   2.304   3.770   3.959
   76EMI    H08 1431   2.071   3.636   3.929
   76EMI    C05 1432   1.846   3.794   3.999
   76EMI    H0B 1433   1.791   3.884   3.982
   76EMI    H0C 1434   1.829   3.728   3.914
   76EMI    H0D 1435   1.810   3.745   4.088
   76EMI    N00 1436   1.989   3.816   4.013
   76EMI    C06 1437   2.272   4.008   4.114
   76EMI    H0F 1438   2.316   3.967   4.204
   76EMI    C0N 1439   2.378   4.053   4.016
   76EMI    H0O 1440   2.437   4.128   4.065
   76EMI    H0P 1441   2.443   3.970   3.988
   76EMI    H0Q 1442   2.333   4.096   3.928
   76EMI    N02 1443   2.176   3.911   4.059
   76EMI    H0E 1444   2.216   4.095   4.141
   77EMI    C01 1445   2.890   0.430   0.634
   77EMI    C04 1446   2.878   0.442   0.850
   77EMI    C03 1447   2.802   0.539   0.801
   77EMI    H07 1448   2.916   0.397   0.535
   77EMI    H09 1449   2.902   0.417   0.951
   77EMI    H08 1450   2.745   0.613   0.852
   77EMI    C05 1451   2.729   0.609   0.571
   77EMI    H0B 1452   2.725   0.561   0.474
   77EMI    H0C 1453   2.629   0.616   0.611
   77EMI    H0D 1454   2.770   0.708   0.560
   77EMI    N00 1455   2.809   0.530   0.664
   77EMI    C06 1456   2.986   0.235   0.754
   77EMI    H0F 1457   3.092   0.243   0.775
   77EMI    C0N 1458   2.915   0.151   0.860
   77EMI    H0O 1459   2.984   0.075   0.891
   77EMI    H0P 1460   2.892   0.205   0.950
   77EMI    H0Q 1461   2.827   0.102   0.824
   77EMI    N02 1462   2.930   0.371   0.744
   77EMI    H0E 1463   2.976   0.185   0.658
   78EMI    C01 1464   0.565   1.573   2.338
   78EMI    C04 1465   0.677   1.397   2.401
   78EMI    C03 1466   0.703   1.416   2.273
   78EMI    H07 1467   0.504   1.661   2.339
   78EMI    H09 1468   0.716   1.323   2.468
   78EMI    H08 1469   0.769   1.360   2.210
   78EMI    C05 1470   0.623   1.582   2.102
   78EMI    H0B 1471   0.638   1.689   2.109
   78EMI    H0C 1472   0.700   1.536   2.043
   78EMI    H0D 1473   0.525   1.562   2.064
   78EMI    N00 1474   0.630   1.526   2.234
   78EMI    C06 1475   0.531   1.507   2.572
   78EMI    H0F 1476   0.454   1.433   2.582
   78EMI    C0N 1477   0.636   1.488   2.676
   78EMI    H0O 1478   0.595   1.511   2.773
   78EMI    H0P 1479   0.668   1.384   2.678
   78EMI    H0Q 1480   0.721   1.552   2.656
   78EMI    N02 1481   0.586   1.492   2.439
   78EMI    H0E 1482   0.491   1.607   2.580
   79EMI    C01 1483   3.528   2.044   4.546
   79EMI    C04 1484   3.612   1.968   4.361
   79EMI    C03 1485   3.491   2.016   4.334
   79EMI    H07 1486   3.515   2.068   4.649
   79EMI    H09 1487   3.681   1.920   4.295
   79EMI    H08 1488   3.435   2.018   4.242
   79EMI    C05 1489   3.297   2.101   4.470
   79EMI    H0B 1490   3.285   2.151   4.566
   79EMI    H0C 1491   3.267   2.168   4.391
   79EMI    H0D 1492   3.232   2.015   4.466
   79EMI    N00 1493   3.436   2.059   4.452
   79EMI    C06 1494   3.763   1.962   4.566
   79EMI    H0F 1495   3.764   1.858   4.595
   79EMI    C0N 1496   3.887   1.997   4.486
   79EMI    H0O 1497   3.975   1.977   4.545
   79EMI    H0P 1498   3.893   1.938   4.396
   79EMI    H0Q 1499   3.888   2.102   4.459
   79EMI    N02 1500   3.636   1.990   4.495
   79EMI    H0E 1501   3.760   2.020   4.657
   80EMI    C01 1502   4.042   3.033   3.730
   80EMI    C04 1503   3.920   3.213   3.715
   80EMI    C03 1504   3.989   3.199   3.602
   80EMI    H07 1505   4.082   2.941   3.765
   80EMI    H09 1506   3.851   3.290   3.740
   80EMI    H08 1507   3.989   3.258   3.514
   80EMI    C05 1508   4.187   3.060   3.527
   80EMI    H0B 1509   4.218   2.958   3.540
   80EMI    H0C 1510   4.160   3.074   3.424
   80EMI    H0D 1511   4.273   3.123   3.546
   80EMI    N00 1512   4.077   3.094   3.618
   80EMI    C06 1513   3.893   3.077   3.927
   80EMI    H0F 1514   3.965   3.097   4.006
   80EMI    C0N 1515   3.768   3.161   3.947
   80EMI    H0O 1516   3.710   3.122   4.029
   80EMI    H0P 1517   3.797   3.263   3.968
   80EMI    H0Q 1518   3.705   3.163   3.859
   80EMI    N02 1519   3.956   3.108   3.796
   80EMI    H0E 1520   3.867   2.972   3.926
   81EMI    C01 1521   1.305   0.468   3.730
   81EMI    C04 1522   1.399   0.275   3.764
   81EMI    C03 1523   1.487   0.369   3.795
   81EMI    H07 1524   1.234   0.545   3.709
   81EMI    H09 1525   1.408   0.169   3.769
   81EMI    H08 1526   1.585   0.362   3.835
   81EMI    C05 1527   1.490   0.622   3.786
   81EMI    H0B 1528   1.414   0.699   3.787
   81EMI    H0C 1529   1.541   0.623   3.880
   81EMI    H0D 1530   1.558   0.638   3.705
   81EMI    N00 1531   1.428   0.491   3.771
   81EMI    C06 1532   1.162   0.275   3.675
   81EMI    H0F 1533   1.171   0.248   3.571
   81EMI    C0N 1534   1.127   0.158   3.764
   81EMI    H0O 1535   1.023   0.130   3.749
   81EMI    H0P 1536   1.190   0.073   3.740
   81EMI    H0Q 1537   1.140   0.185   3.868
   81EMI    N02 1538   1.287   0.339   3.717
   81EMI    H0E 1539   1.087   0.350   3.691
   82EMI    C01 1540   3.497   1.575   1.490
   82EMI    C04 1541   3.495   1.786   1.446
   82EMI    C03 1542   3.548   1.770   1.567
   82EMI    H07 1543   3.490   1.469   1.477
   82EMI    H09 1544   3.483   1.873   1.384
   82EMI    H08 1545   3.593   1.840   1.632
   82EMI    C05 1546   3.571   1.571   1.727
   82EMI    H0B 1547   3.610   1.472   1.707
   82EMI    H0C 1548   3.645   1.627   1.781
   82EMI    H0D 1549   3.482   1.558   1.786
   82EMI    N00 1550   3.538   1.635   1.598
   82EMI    C06 1551   3.370   1.637   1.283
   82EMI    H0F 1552   3.267   1.667   1.298
   82EMI    C0N 1553   3.430   1.708   1.164
   82EMI    H0O 1554   3.392   1.667   1.071
   82EMI    H0P 1555   3.403   1.813   1.169
   82EMI    H0Q 1556   3.537   1.702   1.163
   82EMI    N02 1557   3.448   1.663   1.405
   82EMI    H0E 1558   3.371   1.531   1.266
   83EMI    C01 1559   0.768   4.826   1.708
   83EMI    C04 1560   0.643   4.686   1.599
   83EMI    C03 1561   0.563   4.771   1.662
   83EMI    H07 1562   0.854   4.874   1.749
   83EMI    H09 1563   0.613   4.606   1.535
   83EMI    H08 1564   0.457   4.773   1.661
   83EMI    C05 1565   0.599   4.966   1.821
   83EMI    H0B 1566   0.613   0.015   1.771
   83EMI    H0C 1567   0.495   4.951   1.844
   83EMI    H0D 1568   0.657   4.959   1.912
   83EMI    N00 1569   0.644   4.858   1.732
   83EMI    C06 1570   0.891   4.636   1.608
   83EMI    H0F 1571   0.947   4.630   1.700
   83EMI    C0N 1572   0.846   4.498   1.567
   83EMI    H0O 1573   0.932   4.435   1.550
   83EMI    H0P 1574   0.781   4.452   1.640
   83EMI    H0Q 1575   0.796   4.506   1.471
   83EMI    N02 1576   0.772   4.718   1.633
   83EMI    H0E 1577   0.950   4.678   1.529
   84EMI    C01 1578   1.264   3.057   2.002
   84EMI    C04 1579   1.116   3.181   1.902
   84EMI    C03 1580   1.199   3.261   1.966
   84EMI    H07 1581   1.322   2.973   2.034
   84EMI    H09 1582   1.031   3.206   1.841
   84EMI    H08 1583   1.197   3.367   1.969
   84EMI    C05 1584   1.391   3.231   2.128
   84EMI    H0B 1585   1.444   3.147   2.170
   84EMI    H0C 1586   1.460   3.293   2.073
   84EMI    H0D 1587   1.345   3.287   2.208
   84EMI    N00 1588   1.289   3.182   2.035
   84EMI    C06 1589   1.098   2.932   1.863
   84EMI    H0F 1590   1.013   2.904   1.922
   84EMI    C0N 1591   1.056   2.953   1.719
   84EMI    H0O 1592   1.133   2.919   1.651
   84EMI    H0P 1593   0.966   2.897   1.699
   84EMI    H0Q 1594   1.032   3.055   1.694
   84EMI    N02 1595   1.158   3.052   1.924
   84EMI    H0E 1596   1.171   2.853   1.864
   85EMI    C01 1597   1.782   0.551   2.411
   85EMI    C04 1598   1.927   0.712   2.433
   85EMI    C03 1599   1.808   0.766   2.416
   85EMI    H07 1600   1.739   0.454   2.400
   85EMI    H09 1601   2.021   0.762   2.444
   85EMI    H08 1602   1.783   0.869   2.412
   85EMI    C05 1603   1.573   0.687   2.380
   85EMI    H0B 1604   1.523   0.596   2.351
   85EMI    H0C 1605   1.526   0.725   2.469
   85EMI    H0D 1606   1.562   0.761   2.303
   85EMI    N00 1607   1.716   0.665   2.402
   85EMI    C06 1608   2.019   0.479   2.450
   85EMI    H0F 1609   2.072   0.466   2.358
   85EMI    C0N 1610   2.111   0.529   2.560
   85EMI    H0O 1611   2.191   0.458   2.576
   85EMI    H0P 1612   2.158   0.622   2.534
   85EMI    H0Q 1613   2.055   0.546   2.652
   85EMI    N02 1614   1.911   0.576   2.427
   85EMI    H0E 1615   1.975   0.385   2.478
   86EMI    C01 1616   1.832   0.136   2.717
   86EMI    C04 1617   1.854   0.143   2.499
   86EMI    C03 1618   1.744   0.211   2.532
   86EMI    H07 1619   1.851   0.114   2.820
   86EMI    H09 1620   1.895   0.122   2.403
   86EMI    H08 1621   1.672   0.255   2.468
   86EMI    C05 1622   1.632   0.277   2.749
   86EMI    H0B 1623   1.669   0.293   2.849
   86EMI    H0C 1624   1.607   0.372   2.705
   86EMI    H0D 1625   1.543   0.216   2.754
   86EMI    N00 1626   1.734   0.210   2.670
   86EMI    C06 1627   2.039   0.035   2.628
   86EMI    H0F 1628   2.031   4.983   2.581
   86EMI    C0N 1629   2.141   0.124   2.561
   86EMI    H0O 1630   2.240   0.093   2.587
   86EMI    H0P 1631   2.132   0.121   2.453
   86EMI    H0Q 1632   2.129   0.227   2.591
   86EMI    N02 1633   1.909   0.098   2.617
   86EMI    H0E 1634   2.062   0.022   2.733
   87EMI    C01 1635   2.899   3.506   1.405
   87EMI    C04 1636   2.928   3.713   1.347
   87EMI    C03 1637   3.033   3.644   1.303
   87EMI    H07 1638   2.850   3.416   1.436
   87EMI    H09 1639   2.903   3.816   1.332
   87EMI    H08 1640   3.115   3.676   1.242
   87EMI    C05 1641   3.094   3.399   1.292
   87EMI    H0B 1642   3.038   3.308   1.297
   87EMI    H0C 1643   3.119   3.417   1.188
   87EMI    H0D 1644   3.187   3.390   1.346
   87EMI    N00 1645   3.014   3.512   1.339
   87EMI    C06 1646   2.710   3.659   1.463
   87EMI    H0F 1647   2.715   3.691   1.566
   87EMI    C0N 1648   2.645   3.764   1.377
   87EMI    H0O 1649   2.542   3.776   1.409
   87EMI    H0P 1650   2.695   3.859   1.386
   87EMI    H0Q 1651   2.644   3.735   1.273
   87EMI    N02 1652   2.845   3.626   1.414
   87EMI    H0E 1653   2.650   3.571   1.452
   88EMI    C01 1654   4.222   4.295   3.463
   88EMI    C04 1655   4.320   4.275   3.271
   88EMI    C03 1656   4.409   4.246   3.365
   88EMI    H07 1657   4.148   4.312   3.537
   88EMI    H09 1658   4.333   4.276   3.165
   88EMI    H08 1659   4.512   4.218   3.352
   88EMI    C05 1660   4.407   4.229   3.617
   88EMI    H0B 1661   4.333   4.206   3.692
   88EMI    H0C 1662   4.477   4.147   3.607
   88EMI    H0D 1663   4.463   4.317   3.645
   88EMI    N00 1664   4.346   4.256   3.486
   88EMI    C06 1665   4.078   4.350   3.267
   88EMI    H0F 1666   4.082   4.454   3.239
   88EMI    C0N 1667   4.059   4.265   3.144
   88EMI    H0O 1668   3.969   4.291   3.091
   88EMI    H0P 1669   4.140   4.284   3.075
   88EMI    H0Q 1670   4.057   4.159   3.166
   88EMI    N02 1671   4.204   4.314   3.334
   88EMI    H0E 1672   3.995   4.331   3.334
   89EMI    C01 1673   0.679   0.588   0.170
   89EMI    C04 1674   0.598   0.403   0.090
   89EMI    C03 1675   0.728   0.384   0.113
   89EMI    H07 1676   0.686   0.686   0.213
   89EMI    H09 1677   0.525   0.330   0.063
   89EMI    H08 1678   0.783   0.292   0.107
   89EMI    C05 1679   0.920   0.531   0.196
   89EMI    H0B 1680   0.925   0.602   0.277
   89EMI    H0C 1681   0.967   0.438   0.226
   89EMI    H0D 1682   0.974   0.574   0.114
   89EMI    N00 1683   0.780   0.504   0.160
   89EMI    C06 1684   0.430   0.582   0.164
   89EMI    H0F 1685   0.406   0.662   0.097
   89EMI    C0N 1686   0.320   0.477   0.159
   89EMI    H0O 1687   0.223   0.522   0.174
   89EMI    H0P 1688   0.317   0.424   0.064
   89EMI    H0Q 1689   0.332   0.402   0.236
   89EMI    N02 1690   0.566   0.531   0.133
   89EMI    H0E 1691   0.433   0.614   0.267
   90EMI    C01 1692   3.748   2.300   3.997
   90EMI    C04 1693   3.791   2.344   4.205
   90EMI    C03 1694   3.770   2.214   4.195
   90EMI    H07 1695   3.736   2.309   3.891
   90EMI    H09 1696   3.810   2.403   4.292
   90EMI    H08 1697   3.767   2.140   4.271
   90EMI    C05 1698   3.669   2.065   4.018
   90EMI    H0B 1699   3.673   2.058   3.911
   90EMI    H0C 1700   3.719   1.979   4.059
   90EMI    H0D 1701   3.565   2.062   4.049
   90EMI    N00 1702   3.732   2.188   4.065
   90EMI    C06 1703   3.785   2.542   4.046
   90EMI    H0F 1704   3.693   2.570   4.000
   90EMI    C0N 1705   3.805   2.631   4.168
   90EMI    H0O 1706   3.829   2.732   4.138
   90EMI    H0P 1707   3.719   2.638   4.232
   90EMI    H0Q 1708   3.887   2.595   4.227
   90EMI    N02 1709   3.777   2.398   4.080
   90EMI    H0E 1710   3.871   2.556   3.982
   91EMI    C01 1711   2.824   0.312   1.272
   91EMI    C04 1712   3.015   0.407   1.311
   91EMI    C03 1713   3.037   0.282   1.271
   91EMI    H07 1714   2.720   0.297   1.255
   91EMI    H09 1715   3.090   0.481   1.332
   91EMI    H08 1716   3.133   0.237   1.254
   91EMI    C05 1717   2.901   0.081   1.212
   91EMI    H0B 1718   2.819   0.068   1.143
   91EMI    H0C 1719   2.993   0.054   1.161
   91EMI    H0D 1720   2.891   0.017   1.298
   91EMI    N00 1721   2.917   0.221   1.253
   91EMI    C06 1722   2.811   0.550   1.349
   91EMI    H0F 1723   2.843   0.578   1.449
   91EMI    C0N 1724   2.841   0.658   1.248
   91EMI    H0O 1725   2.775   0.743   1.261
   91EMI    H0P 1726   2.943   0.691   1.263
   91EMI    H0Q 1727   2.833   0.621   1.147
   91EMI    N02 1728   2.879   0.424   1.315
   91EMI    H0E 1729   2.706   0.531   1.352
   92EMI    C01 1730   1.612   1.043   0.210
   92EMI    C04 1731   1.652   1.150   0.395
   92EMI    C03 1732   1.680   1.021   0.415
   92EMI    H07 1733   1.588   1.022   0.108
   92EMI    H09 1734   1.659   1.231   0.464
   92EMI    H08 1735   1.712   0.974   0.505
   92EMI    C05 1736   1.658   0.808   0.280
   92EMI    H0B 1737   1.709   0.786   0.188
   92EMI    H0C 1738   1.711   0.765   0.363
   92EMI    H0D 1739   1.557   0.769   0.279
   92EMI    N00 1740   1.651   0.954   0.299
   92EMI    C06 1741   1.575   1.289   0.195
   92EMI    H0F 1742   1.469   1.301   0.184
   92EMI    C0N 1743   1.634   1.405   0.270
   92EMI    H0O 1744   1.624   1.495   0.211
   92EMI    H0P 1745   1.586   1.423   0.365
   92EMI    H0Q 1746   1.738   1.385   0.288
   92EMI    N02 1747   1.608   1.162   0.265
   92EMI    H0E 1748   1.625   1.288   0.100
   93EMI    C01 1749   1.600   1.399   2.141
   93EMI    C04 1750   1.452   1.393   1.981
   93EMI    C03 1751   1.396   1.342   2.091
   93EMI    H07 1752   1.691   1.419   2.195
   93EMI    H09 1753   1.412   1.410   1.884
   93EMI    H08 1754   1.297   1.307   2.108
   93EMI    C05 1755   1.458   1.318   2.332
   93EMI    H0B 1756   1.482   1.400   2.398
   93EMI    H0C 1757   1.354   1.292   2.339
   93EMI    H0D 1758   1.512   1.233   2.367
   93EMI    N00 1759   1.489   1.349   2.192
   93EMI    C06 1760   1.666   1.515   1.931
   93EMI    H0F 1761   1.743   1.453   1.891
   93EMI    C0N 1762   1.596   1.591   1.820
   93EMI    H0O 1763   1.662   1.670   1.784
   93EMI    H0P 1764   1.576   1.526   1.735
   93EMI    H0Q 1765   1.503   1.636   1.852
   93EMI    N02 1766   1.579   1.431   2.015
   93EMI    H0E 1767   1.707   1.589   1.999
   94EMI    C01 1768   2.139   0.318   2.849
   94EMI    C04 1769   2.228   0.192   3.001
   94EMI    C03 1770   2.103   0.220   3.039
   94EMI    H07 1771   2.126   0.377   2.761
   94EMI    H09 1772   2.299   0.132   3.051
   94EMI    H08 1773   2.049   0.188   3.127
   94EMI    C05 1774   1.920   0.369   2.946
   94EMI    H0B 1775   1.882   0.386   2.846
   94EMI    H0C 1776   1.850   0.315   3.008
   94EMI    H0D 1777   1.938   0.465   2.990
   94EMI    N00 1778   2.049   0.301   2.942
   94EMI    C06 1779   2.377   0.265   2.806
   94EMI    H0F 1780   2.445   0.336   2.849
   94EMI    C0N 1781   2.439   0.129   2.793
   94EMI    H0O 1782   2.519   0.132   2.720
   94EMI    H0P 1783   2.477   0.094   2.888
   94EMI    H0Q 1784   2.365   0.059   2.758
   94EMI    N02 1785   2.251   0.260   2.883
   94EMI    H0E 1786   2.353   0.298   2.705
   95EMI    C01 1787   1.086   1.282   3.093
   95EMI    C04 1788   1.237   1.242   2.944
   95EMI    C03 1789   1.243   1.372   2.972
   95EMI    H07 1790   1.006   1.266   3.161
   95EMI    H09 1791   1.289   1.186   2.869
   95EMI    H08 1792   1.301   1.448   2.927
   95EMI    C05 1793   1.118   1.527   3.128
   95EMI    H0B 1794   1.106   1.518   3.235
   95EMI    H0C 1795   1.196   1.599   3.106
   95EMI    H0D 1796   1.025   1.565   3.087
   95EMI    N00 1797   1.147   1.396   3.068
   95EMI    C06 1798   1.098   1.044   3.019
   95EMI    H0F 1799   1.023   1.021   2.944
   95EMI    C0N 1800   1.221   0.962   2.995
   95EMI    H0O 1801   1.203   0.860   3.027
   95EMI    H0P 1802   1.248   0.962   2.890
   95EMI    H0Q 1803   1.302   1.003   3.052
   95EMI    N02 1804   1.135   1.187   3.018
   95EMI    H0E 1805   1.063   1.019   3.117
   96EMI    C01 1806   1.285   4.611   4.812
   96EMI    C04 1807   1.287   4.470   4.645
   96EMI    C03 1808   1.405   4.463   4.707
   96EMI    H07 1809   1.253   4.687   4.880
   96EMI    H09 1810   1.248   4.415   4.563
   96EMI    H08 1811   1.490   4.401   4.687
   96EMI    C05 1812   1.508   4.566   4.914
   96EMI    H0B 1813   1.481   4.518   5.007
   96EMI    H0C 1814   1.600   4.521   4.879
   96EMI    H0D 1815   1.525   4.671   4.932
   96EMI    N00 1816   1.401   4.549   4.815
   96EMI    C06 1817   1.072   4.596   4.680
   96EMI    H0F 1818   1.067   4.666   4.598
   96EMI    C0N 1819   0.992   4.470   4.651
   96EMI    H0O 1820   0.886   4.491   4.645
   96EMI    H0P 1821   1.022   4.426   4.557
   96EMI    H0Q 1822   1.007   4.395   4.728
   96EMI    N02 1823   1.213   4.565   4.711
   96EMI    H0E 1824   1.029   4.642   4.768
   97EMI    C01 1825   0.547   0.471   1.838
   97EMI    C04 1826   0.611   0.617   1.985
   97EMI    C03 1827   0.718   0.581   1.915
   97EMI    H07 1828   0.486   0.409   1.775
   97EMI    H09 1829   0.603   0.689   2.064
   97EMI    H08 1830   0.819   0.612   1.924
   97EMI    C05 1831   0.749   0.467   1.694
   97EMI    H0B 1832   0.741   0.547   1.622
   97EMI    H0C 1833   0.854   0.457   1.716
   97EMI    H0D 1834   0.711   0.377   1.648
   97EMI    N00 1835   0.673   0.499   1.814
   97EMI    C06 1836   0.362   0.569   1.972
   97EMI    H0F 1837   0.328   0.490   2.037
   97EMI    C0N 1838   0.344   0.705   2.037
   97EMI    H0O 1839   0.239   0.732   2.040
   97EMI    H0P 1840   0.382   0.704   2.139
   97EMI    H0Q 1841   0.397   0.783   1.985
   97EMI    N02 1842   0.504   0.545   1.937
   97EMI    H0E 1843   0.307   0.570   1.878
   98EMI    C01 1844   0.608   4.426   3.106
   98EMI    C04 1845   0.495   4.272   3.210
   98EMI    C03 1846   0.419   4.382   3.203
   98EMI    H07 1847   0.684   4.478   3.052
   98EMI    H09 1848   0.471   4.177   3.254
   98EMI    H08 1849   0.320   4.397   3.242
   98EMI    C05 1850   0.441   4.612   3.095
   98EMI    H0B 1851   0.446   4.626   2.988
   98EMI    H0C 1852   0.338   4.625   3.125
   98EMI    H0D 1853   0.498   4.690   3.141
   98EMI    N00 1854   0.490   4.478   3.135
   98EMI    C06 1855   0.730   4.208   3.133
   98EMI    H0F 1856   0.804   4.218   3.211
   98EMI    C0N 1857   0.685   4.063   3.126
   98EMI    H0O 1858   0.768   3.999   3.100
   98EMI    H0P 1859   0.648   4.028   3.222
   98EMI    H0Q 1860   0.608   4.049   3.053
   98EMI    N02 1861   0.617   4.303   3.153
   98EMI    H0E 1862   0.774   4.229   3.038
   99EMI    C01 1863   2.356   2.315   4.266
   99EMI    C04 1864   2.183   2.245   4.375
   99EMI    C03 1865   2.140   2.302   4.262
   99EMI    H07 1866   2.457   2.340   4.241
   99EMI    H09 1867   2.124   2.200   4.452
   99EMI    H08 1868   2.041   2.317   4.224
   99EMI    C05 1869   2.254   2.408   4.063
   99EMI    H0B 1870   2.350   2.392   4.017
   99EMI    H0C 1871   2.178   2.361   4.005
   99EMI    H0D 1872   2.231   2.513   4.068
   99EMI    N00 1873   2.251   2.345   4.194
   99EMI    C06 1874   2.415   2.195   4.471
   99EMI    H0F 1875   2.472   2.275   4.516
   99EMI    C0N 1876   2.344   2.109   4.574
   99EMI    H0O 1877   2.411   2.086   4.656
   99EMI    H0P 1878   2.258   2.158   4.616
   99EMI    H0Q 1879   2.313   2.015   4.531
   99EMI    N02 1880   2.321   2.253   4.374
   99EMI    H0E 1881   2.484   2.134   4.414
  100EMI    C01 1882   2.687   0.238   4.455
  100EMI    C04 1883   2.804   0.406   4.388
  100EMI    C03 1884   2.878   0.297   4.371
  100EMI    H07 1885   2.605   0.179   4.488
  100EMI    H09 1886   2.831   0.506   4.362
  100EMI    H08 1887   2.975   0.290   4.329
  100EMI    C05 1888   2.843   0.049   4.415
  100EMI    H0B 1889   2.754   5.035   4.404
  100EMI    H0C 1890   2.907   0.032   4.330
  100EMI    H0D 1891   2.894   0.026   4.507
  100EMI    N00 1892   2.803   0.191   4.415
  100EMI    C06 1893   2.579   0.458   4.499
  100EMI    H0F 1894   2.580   0.459   4.606
  100EMI    C0N 1895   2.600   0.601   4.458
  100EMI    H0O 1896   2.510   0.658   4.476
  100EMI    H0P 1897   2.675   0.642   4.523
  100EMI    H0Q 1898   2.630   0.614   4.355
  100EMI    N02 1899   2.687   0.369   4.451
  100EMI    H0E 1900   2.485   0.423   4.460
  101EMI    C01 1901   1.584   4.430   1.386
  101EMI    C04 1902   1.680   4.346   1.560
  101EMI    C03 1903   1.752   4.452   1.520
  101EMI    H07 1904   1.508   4.452   1.316
  101EMI    H09 1905   1.686   4.291   1.650
  101EMI    H08 1906   1.830   4.505   1.571
  101EMI    C05 1907   1.723   4.624   1.332
  101EMI    H0B 1908   1.631   4.676   1.308
  101EMI    H0C 1909   1.777   4.687   1.399
  101EMI    H0D 1910   1.774   4.604   1.241
  101EMI    N00 1911   1.690   4.502   1.407
  101EMI    C06 1912   1.472   4.228   1.464
  101EMI    H0F 1913   1.503   4.143   1.405
  101EMI    C0N 1914   1.429   4.187   1.601
  101EMI    H0O 1915   1.352   4.111   1.597
  101EMI    H0P 1916   1.514   4.151   1.656
  101EMI    H0Q 1917   1.388   4.274   1.652
  101EMI    N02 1918   1.579   4.329   1.467
  101EMI    H0E 1919   1.387   4.276   1.418
  102EMI    C01 1920   3.277   3.394   2.319
  102EMI    C04 1921   3.309   3.349   2.528
  102EMI    C03 1922   3.425   3.336   2.466
  102EMI    H07 1923   3.229   3.423   2.227
  102EMI    H09 1924   3.286   3.330   2.631
  102EMI    H08 1925   3.520   3.310   2.504
  102EMI    C05 1926   3.511   3.368   2.235
  102EMI    H0B 1927   3.481   3.413   2.143
  102EMI    H0C 1928   3.589   3.428   2.281
  102EMI    H0D 1929   3.554   3.271   2.217
  102EMI    N00 1930   3.404   3.363   2.334
  102EMI    C06 1931   3.091   3.461   2.470
  102EMI    H0F 1932   3.034   3.470   2.379
  102EMI    C0N 1933   3.016   3.374   2.568
  102EMI    H0O 1934   2.922   3.421   2.596
  102EMI    H0P 1935   2.994   3.276   2.529
  102EMI    H0Q 1936   3.073   3.360   2.659
  102EMI    N02 1937   3.221   3.403   2.437
  102EMI    H0E 1938   3.108   3.560   2.510
  103EMI    C01 1939   3.840   1.463   2.531
  103EMI    C04 1940   3.976   1.630   2.558
  103EMI    C03 1941   3.927   1.600   2.678
  103EMI    H07 1942   3.779   1.387   2.487
  103EMI    H09 1943   4.045   1.704   2.531
  103EMI    H08 1944   3.945   1.646   2.773
  103EMI    C05 1945   3.763   1.432   2.767
  103EMI    H0B 1946   3.708   1.349   2.726
  103EMI    H0C 1947   3.829   1.397   2.845
  103EMI    H0D 1948   3.692   1.503   2.806
  103EMI    N00 1949   3.841   1.494   2.660
  103EMI    C06 1950   3.946   1.557   2.320
  103EMI    H0F 1951   3.875   1.623   2.274
  103EMI    C0N 1952   4.089   1.603   2.293
  103EMI    H0O 1953   4.115   1.590   2.189
  103EMI    H0P 1954   4.103   1.708   2.316
  103EMI    H0Q 1955   4.159   1.546   2.352
  103EMI    N02 1956   3.917   1.549   2.465
  103EMI    H0E 1957   3.936   1.459   2.279
  104EMI    C01 1958   3.727   4.280   0.880
  104EMI    C04 1959   3.776   4.409   0.712
  104EMI    C03 1960   3.815   4.470   0.824
  104EMI    H07 1961   3.699   4.194   0.937
  104EMI    H09 1962   3.791   4.443   0.612
  104EMI    H08 1963   3.863   4.565   0.836
  104EMI    C05 1964   3.816   4.414   1.070
  104EMI    H0B 1965   3.793   4.329   1.131
  104EMI    H0C 1966   3.922   4.437   1.076
  104EMI    H0D 1967   3.760   4.500   1.103
  104EMI    N00 1968   3.785   4.387   0.929
  104EMI    C06 1969   3.660   4.188   0.657
  104EMI    H0F 1970   3.553   4.200   0.655
  104EMI    C0N 1971   3.711   4.195   0.515
  104EMI    H0O 1972   3.649   4.135   0.450
  104EMI    H0P 1973   3.712   4.296   0.476
  104EMI    H0Q 1974   3.812   4.158   0.505
  104EMI    N02 1975   3.716   4.290   0.749
  104EMI    H0E 1976   3.689   4.091   0.696
  105EMI    C01 1977   4.051   0.872   1.122
  105EMI    C04 1978   3.838   0.841   1.149
  105EMI    C03 1979   3.864   0.970   1.171
  105EMI    H07 1980   4.154   0.853   1.102
  105EMI    H09 1981   3.745   0.788   1.152
  105EMI    H08 1982   3.794   1.046   1.194
  105EMI    C05 1983   4.075   1.108   1.185
  105EMI    H0B 1984   4.162   1.114   1.120
  105EMI    H0C 1985   4.012   1.194   1.173
  105EMI    H0D 1986   4.109   1.099   1.287
  105EMI    N00 1987   3.999   0.987   1.156
  105EMI    C06 1988   3.975   0.644   1.069
  105EMI    H0F 1989   3.996   0.580   1.153
  105EMI    C0N 1990   3.854   0.602   0.988
  105EMI    H0O 1991   3.874   0.510   0.935
  105EMI    H0P 1992   3.766   0.587   1.048
  105EMI    H0Q 1993   3.832   0.680   0.916
  105EMI    N02 1994   3.958   0.780   1.119
  105EMI    H0E 1995   4.060   0.647   1.003
  106EMI    C01 1996   3.547   0.869   3.815
  106EMI    C04 1997   3.513   0.657   3.842
  106EMI    C03 1998   3.409   0.721   3.895
  106EMI    H07 1999   3.588   0.961   3.778
  106EMI    H09 2000   3.533   0.553   3.830
  106EMI    H08 2001   3.321   0.681   3.940
  106EMI    C05 2002   3.332   0.962   3.890
  106EMI    H0B 2003   3.381   1.057   3.901
  106EMI    H0C 2004   3.270   0.961   3.802
  106EMI    H0D 2005   3.271   0.945   3.977
  106EMI    N00 2006   3.431   0.855   3.874
  106EMI    C06 2007   3.710   0.722   3.699
  106EMI    H0F 2008   3.801   0.699   3.750
  106EMI    C0N 2009   3.670   0.611   3.605
  106EMI    H0O 2010   3.719   0.628   3.510
  106EMI    H0P 2011   3.702   0.515   3.642
  106EMI    H0Q 2012   3.564   0.608   3.586
  106EMI    N02 2013   3.600   0.751   3.792
  106EMI    H0E 2014   3.724   0.809   3.637
  107EMI    C01 2015   2.428   2.772   4.009
  107EMI    C04 2016   2.574   2.932   3.991
  107EMI    C03 2017   2.639   2.816   3.979
  107EMI    H07 2018   2.335   2.721   4.015
  107EMI    H09 2019   2.610   3.033   3.991
  107EMI    H08 2020   2.741   2.793   3.963
  107EMI    C05 2021   2.577   2.573   3.992
  107EMI    H0B 2022   2.501   2.524   3.934
  107EMI    H0C 2023   2.673   2.557   3.946
  107EMI    H0D 2024   2.578   2.534   4.092
  107EMI    N00 2025   2.546   2.716   3.995
  107EMI    C06 2026   2.330   2.999   4.009
  107EMI    H0F 2027   2.302   3.028   4.109
  107EMI    C0N 2028   2.365   3.121   3.929
  107EMI    H0O 2029   2.276   3.181   3.914
  107EMI    H0P 2030   2.439   3.181   3.979
  107EMI    H0Q 2031   2.402   3.088   3.834
  107EMI    N02 2032   2.441   2.903   4.011
  107EMI    H0E 2033   2.247   2.953   3.957
  108EMI    C01 2034   2.560   4.363   3.983
  108EMI    C04 2035   2.685   4.507   4.089
  108EMI    C03 2036   2.741   4.387   4.100
  108EMI    H07 2037   2.482   4.321   3.924
  108EMI    H09 2038   2.719   4.602   4.124
  108EMI    H08 2039   2.832   4.359   4.148
  108EMI    C05 2040   2.695   4.155   4.008
  108EMI    H0B 2041   2.637   4.117   3.926
  108EMI    H0C 2042   2.799   4.143   3.982
  108EMI    H0D 2043   2.673   4.097   4.096
  108EMI    N00 2044   2.664   4.297   4.030
  108EMI    C06 2045   2.478   4.599   3.970
  108EMI    H0F 2046   2.383   4.582   4.016
  108EMI    C0N 2047   2.526   4.739   4.006
  108EMI    H0O 2048   2.461   4.814   3.963
  108EMI    H0P 2049   2.528   4.755   4.112
  108EMI    H0Q 2050   2.626   4.758   3.967
  108EMI    N02 2051   2.570   4.491   4.015
  108EMI    H0E 2052   2.475   4.593   3.863
  109EMI    C01 2053   3.030   3.604   1.670
  109EMI    C04 2054   3.194   3.698   1.565
  109EMI    C03 2055   3.219   3.568   1.571
  109EMI    H07 2056   2.933   3.589   1.713
  109EMI    H09 2057   3.251   3.774   1.517
  109EMI    H08 2058   3.301   3.512   1.529
  109EMI    C05 2059   3.094   3.363   1.649
  109EMI    H0B 2060   2.991   3.336   1.635
  109EMI    H0C 2061   3.154   3.317   1.571
  109EMI    H0D 2062   3.129   3.327   1.745
  109EMI    N00 2063   3.114   3.508   1.636
  109EMI    C06 2064   3.012   3.852   1.657
  109EMI    H0F 2065   3.028   3.885   1.759
  109EMI    C0N 2066   3.067   3.956   1.562
  109EMI    H0O 2067   3.019   4.052   1.578
  109EMI    H0P 2068   3.173   3.970   1.578
  109EMI    H0Q 2069   3.052   3.930   1.459
  109EMI    N02 2070   3.078   3.721   1.637
  109EMI    H0E 2071   2.907   3.843   1.635
  110EMI    C01 2072   4.894   4.442   2.399
  110EMI    C04 2073   4.743   4.597   2.411
  110EMI    C03 2074   4.862   4.656   2.418
  110EMI    H07 2075   4.941   4.346   2.393
  110EMI    H09 2076   4.646   4.642   2.420
  110EMI    H08 2077   4.886   4.759   2.434
  110EMI    C05 2078   0.056   4.571   2.426
  110EMI    H0B 2079   0.101   4.475   2.407
  110EMI    H0C 2080   0.096   4.644   2.358
  110EMI    H0D 2081   0.077   4.599   2.528
  110EMI    N00 2082   4.957   4.556   2.412
  110EMI    C06 2083   4.664   4.354   2.418
  110EMI    H0F 2084   4.651   4.334   2.523
  110EMI    C0N 2085   4.531   4.391   2.357
  110EMI    H0O 2086   4.463   4.307   2.363
  110EMI    H0P 2087   4.487   4.472   2.413
  110EMI    H0Q 2088   4.541   4.423   2.254
  110EMI    N02 2089   4.765   4.461   2.409
  110EMI    H0E 2090   4.705   4.269   2.366
  111EMI    C01 2091   3.350   2.428   1.950
  111EMI    C04 2092   3.496   2.492   2.094
  111EMI    C03 2093   3.562   2.449   1.987
  111EMI    H07 2094   3.260   2.410   1.896
  111EMI    H09 2095   3.531   2.551   2.174
  111EMI    H08 2096   3.664   2.467   1.964
  111EMI    C05 2097   3.490   2.394   1.751
  111EMI    H0B 2098   3.423   2.459   1.697
  111EMI    H0C 2099   3.586   2.428   1.718
  111EMI    H0D 2100   3.472   2.291   1.722
  111EMI    N00 2101   3.467   2.414   1.894
  111EMI    C06 2102   3.259   2.532   2.164
  111EMI    H0F 2103   3.204   2.452   2.210
  111EMI    C0N 2104   3.317   2.623   2.271
  111EMI    H0O 2105   3.239   2.673   2.327
  111EMI    H0P 2106   3.379   2.570   2.342
  111EMI    H0Q 2107   3.376   2.703   2.226
  111EMI    N02 2108   3.362   2.477   2.072
  111EMI    H0E 2109   3.197   2.597   2.105
  112EMI    C01 2110   2.543   0.370   0.944
  112EMI    C04 2111   2.472   0.165   0.946
  112EMI    C03 2112   2.429   0.224   1.058
  112EMI    H07 2113   2.577   0.465   0.907
  112EMI    H09 2114   2.452   0.067   0.908
  112EMI    H08 2115   2.363   0.185   1.133
  112EMI    C05 2116   2.442   0.460   1.151
  112EMI    H0B 2117   2.438   0.552   1.095
  112EMI    H0C 2118   2.345   0.442   1.195
  112EMI    H0D 2119   2.520   0.468   1.225
  112EMI    N00 2120   2.474   0.354   1.055
  112EMI    C06 2121   2.592   0.245   0.735
  112EMI    H0F 2122   2.699   0.247   0.734
  112EMI    C0N 2123   2.545   0.118   0.668
  112EMI    H0O 2124   2.585   0.115   0.568
  112EMI    H0P 2125   2.581   0.032   0.723
  112EMI    H0Q 2126   2.437   0.114   0.662
  112EMI    N02 2127   2.543   0.259   0.874
  112EMI    H0E 2128   2.554   0.328   0.678
  113EMI    C01 2129   1.139   0.416   1.162
  113EMI    C04 2130   0.991   0.567   1.212
  113EMI    C03 2131   0.940   0.447   1.242
  113EMI    H07 2132   1.227   0.368   1.122
  113EMI    H09 2133   0.948   0.663   1.223
  113EMI    H08 2134   0.846   0.419   1.285
  113EMI    C05 2135   1.016   0.207   1.205
  113EMI    H0B 2136   1.104   0.158   1.241
  113EMI    H0C 2137   0.929   0.177   1.262
  113EMI    H0D 2138   0.997   0.179   1.103
  113EMI    N00 2139   1.034   0.352   1.207
  113EMI    C06 2140   1.206   0.645   1.097
  113EMI    H0F 2141   1.197   0.638   0.989
  113EMI    C0N 2142   1.178   0.786   1.144
  113EMI    H0O 2143   1.257   0.853   1.112
  113EMI    H0P 2144   1.086   0.823   1.101
  113EMI    H0Q 2145   1.171   0.790   1.251
  113EMI    N02 2146   1.115   0.544   1.155
  113EMI    H0E 2147   1.305   0.616   1.129
  114EMI    C01 2148   3.769   0.258   4.630
  114EMI    C04 2149   3.781   0.074   4.746
  114EMI    C03 2150   3.901   0.131   4.747
  114EMI    H07 2151   3.731   0.340   4.572
  114EMI    H09 2152   3.749   5.030   4.795
  114EMI    H08 2153   3.991   0.101   4.797
  114EMI    C05 2154   4.000   0.342   4.648
  114EMI    H0B 2155   3.966   0.424   4.587
  114EMI    H0C 2156   4.040   0.382   4.740
  114EMI    H0D 2157   4.081   0.291   4.597
  114EMI    N00 2158   3.892   0.248   4.674
  114EMI    C06 2159   3.555   0.135   4.646
  114EMI    H0F 2160   3.537   0.082   4.554
  114EMI    C0N 2161   3.488   0.064   4.763
  114EMI    H0O 2162   3.381   0.068   4.756
  114EMI    H0P 2163   3.515   5.005   4.761
  114EMI    H0Q 2164   3.518   0.108   4.857
  114EMI    N02 2165   3.699   0.153   4.668
  114EMI    H0E 2166   3.515   0.235   4.642
  115EMI    C01 2167   1.707   3.198   2.938
  115EMI    C04 2168   1.644   2.994   2.904
  115EMI    C03 2169   1.722   2.996   3.012
  115EMI    H07 2170   1.713   3.305   2.932
  115EMI    H09 2171   1.588   2.915   2.861
  115EMI    H08 2172   1.746   2.919   3.081
  115EMI    C05 2173   1.875   3.171   3.119
  115EMI    H0B 2174   1.945   3.237   3.072
  115EMI    H0C 2175   1.831   3.219   3.205
  115EMI    H0D 2176   1.932   3.086   3.156
  115EMI    N00 2177   1.771   3.125   3.026
  115EMI    C06 2178   1.601   3.154   2.714
  115EMI    H0F 2179   1.672   3.114   2.644
  115EMI    C0N 2180   1.462   3.108   2.682
  115EMI    H0O 2181   1.437   3.128   2.579
  115EMI    H0P 2182   1.449   3.003   2.703
  115EMI    H0Q 2183   1.394   3.163   2.744
  115EMI    N02 2184   1.647   3.120   2.851
  115EMI    H0E 2185   1.603   3.261   2.706
  116EMI    C01 2186   2.905   1.629   4.031
  116EMI    C04 2187   3.030   1.738   4.171
  116EMI    C03 2188   3.102   1.638   4.121
  116EMI    H07 2189   2.821   1.601   3.970
  116EMI    H09 2190   3.060   1.814   4.239
  116EMI    H08 2191   3.204   1.615   4.140
  116EMI    C05 2192   3.058   1.439   3.978
  116EMI    H0B 2193   2.983   1.412   3.906
  116EMI    H0C 2194   3.153   1.451   3.928
  116EMI    H0D 2195   3.065   1.364   4.054
  116EMI    N00 2196   3.021   1.566   4.038
  116EMI    C06 2197   2.799   1.832   4.131
  116EMI    H0F 2198   2.707   1.779   4.151
  116EMI    C0N 2199   2.829   1.918   4.253
  116EMI    H0O 2200   2.743   1.979   4.278
  116EMI    H0P 2201   2.852   1.860   4.341
  116EMI    H0Q 2202   2.911   1.986   4.234
  116EMI    N02 2203   2.908   1.737   4.106
  116EMI    H0E 2204   2.790   1.896   4.044
  117EMI    C01 2205   2.033   4.382   0.615
  117EMI    C04 2206   1.878   4.445   0.753
  117EMI    C03 2207   1.898   4.315   0.772
  117EMI    H07 2208   2.103   4.383   0.534
  117EMI    H09 2209   1.800   4.507   0.793
  117EMI    H08 2210   1.844   4.247   0.833
  117EMI    C05 2211   2.043   4.138   0.666
  117EMI    H0B 2212   2.129   4.135   0.602
  117EMI    H0C 2213   2.068   4.097   0.762
  117EMI    H0D 2214   1.962   4.080   0.625
  117EMI    N00 2215   1.996   4.276   0.684
  117EMI    C06 2216   1.972   4.623   0.596
  117EMI    H0F 2217   1.910   4.632   0.508
  117EMI    C0N 2218   1.933   4.727   0.698
  117EMI    H0O 2219   1.977   4.823   0.672
  117EMI    H0P 2220   1.826   4.744   0.697
  117EMI    H0Q 2221   1.959   4.699   0.799
  117EMI    N02 2222   1.961   4.486   0.651
  117EMI    H0E 2223   2.074   4.641   0.567
  118EMI    C01 2224   1.013   3.169   4.020
  118EMI    C04 2225   0.890   3.076   4.172
  118EMI    C03 2226   0.984   3.147   4.234
  118EMI    H07 2227   1.054   3.199   3.926
  118EMI    H09 2228   0.812   3.017   4.215
  118EMI    H08 2229   1.000   3.159   4.338
  118EMI    C05 2230   1.180   3.288   4.160
  118EMI    H0B 2231   1.165   3.381   4.109
  118EMI    H0C 2232   1.194   3.305   4.265
  118EMI    H0D 2233   1.269   3.239   4.121
  118EMI    N00 2234   1.063   3.203   4.137
  118EMI    C06 2235   0.819   3.039   3.932
  118EMI    H0F 2236   0.870   2.967   3.870
  118EMI    C0N 2237   0.692   2.979   3.989
  118EMI    H0O 2238   0.622   2.955   3.909
  118EMI    H0P 2239   0.711   2.888   4.043
  118EMI    H0Q 2240   0.641   3.050   4.053
  118EMI    N02 2241   0.908   3.092   4.037
  118EMI    H0E 2242   0.785   3.123   3.874
  119EMI    C01 2243   4.530   0.301   3.640
  119EMI    C04 2244   4.423   0.459   3.536
  119EMI    C03 2245   4.545   0.505   3.568
  119EMI    H07 2246   4.552   0.210   3.691
  119EMI    H09 2247   4.341   0.507   3.487
  119EMI    H08 2248   4.587   0.601   3.552
  119EMI    C05 2249   4.742   0.413   3.700
  119EMI    H0B 2250   4.795   0.320   3.692
  119EMI    H0C 2251   4.800   0.495   3.660
  119EMI    H0D 2252   4.725   0.432   3.806
  119EMI    N00 2253   4.611   0.404   3.635
  119EMI    C06 2254   4.297   0.240   3.576
  119EMI    H0F 2255   4.250   0.240   3.673
  119EMI    C0N 2256   4.193   0.279   3.471
  119EMI    H0O 2257   4.105   0.216   3.481
  119EMI    H0P 2258   4.158   0.381   3.483
  119EMI    H0Q 2259   4.229   0.268   3.370
  119EMI    N02 2260   4.414   0.330   3.585
  119EMI    H0E 2261   4.337   0.144   3.549
  120EMI    C01 2262   2.232   1.446   3.932
  120EMI    C04 2263   2.188   1.242   3.878
  120EMI    C03 2264   2.320   1.253   3.887
  120EMI    H07 2265   2.218   1.547   3.960
  120EMI    H09 2266   2.125   1.160   3.853
  120EMI    H08 2267   2.396   1.180   3.873
  120EMI    C05 2268   2.482   1.443   3.938
  120EMI    H0B 2269   2.489   1.483   4.038
  120EMI    H0C 2270   2.560   1.371   3.923
  120EMI    H0D 2271   2.499   1.526   3.870
  120EMI    N00 2272   2.348   1.385   3.918
  120EMI    C06 2273   1.991   1.386   3.942
  120EMI    H0F 2274   1.939   1.416   3.852
  120EMI    C0N 2275   1.929   1.261   4.003
  120EMI    H0O 2276   1.831   1.281   4.042
  120EMI    H0P 2277   1.918   1.181   3.932
  120EMI    H0Q 2278   1.991   1.227   4.085
  120EMI    N02 2279   2.133   1.363   3.911
  120EMI    H0E 2280   1.988   1.462   4.019
  121EMI    C01 2281   3.302   0.765   1.958
  121EMI    C04 2282   3.340   0.615   2.108
  121EMI    C03 2283   3.341   0.732   2.170
  121EMI    H07 2284   3.281   0.813   1.864
  121EMI    H09 2285   3.368   0.518   2.143
  121EMI    H08 2286   3.365   0.758   2.270
  121EMI    C05 2287   3.315   0.969   2.098
  121EMI    H0B 2288   3.212   1.000   2.104
  121EMI    H0C 2289   3.364   0.991   2.191
  121EMI    H0D 2290   3.363   1.022   2.017
  121EMI    N00 2291   3.319   0.826   2.073
  121EMI    C06 2292   3.285   0.530   1.876
  121EMI    H0F 2293   3.371   0.521   1.810
  121EMI    C0N 2294   3.262   0.396   1.945
  121EMI    H0O 2295   3.187   0.338   1.895
  121EMI    H0P 2296   3.356   0.342   1.942
  121EMI    H0Q 2297   3.229   0.402   2.046
  121EMI    N02 2298   3.310   0.636   1.976
  121EMI    H0E 2299   3.197   0.556   1.820
  122EMI    C01 2300   3.362   3.518   4.268
  122EMI    C04 2301   3.494   3.598   4.421
  122EMI    C03 2302   3.491   3.685   4.320
  122EMI    H07 2303   3.297   3.451   4.215
  122EMI    H09 2304   3.550   3.600   4.512
  122EMI    H08 2305   3.545   3.777   4.310
  122EMI    C05 2306   3.380   3.691   4.091
  122EMI    H0B 2307   3.279   3.729   4.088
  122EMI    H0C 2308   3.451   3.770   4.071
  122EMI    H0D 2309   3.391   3.615   4.015
  122EMI    N00 2310   3.407   3.633   4.223
  122EMI    C06 2311   3.401   3.365   4.460
  122EMI    H0F 2312   3.457   3.288   4.410
  122EMI    C0N 2313   3.450   3.373   4.603
  122EMI    H0O 2314   3.428   3.279   4.653
  122EMI    H0P 2315   3.557   3.390   4.608
  122EMI    H0Q 2316   3.397   3.450   4.656
  122EMI    N02 2317   3.415   3.491   4.385
  122EMI    H0E 2318   3.297   3.341   4.466
  123EMI    C01 2319   0.983   2.352   1.902
  123EMI    C04 2320   1.115   2.523   1.924
  123EMI    C03 2321   1.186   2.423   1.873
  123EMI    H07 2322   0.899   2.287   1.914
  123EMI    H09 2323   1.143   2.622   1.950
  123EMI    H08 2324   1.289   2.419   1.848
  123EMI    C05 2325   1.144   2.178   1.830
  123EMI    H0B 2326   1.068   2.107   1.859
  123EMI    H0C 2327   1.162   2.171   1.724
  123EMI    H0D 2328   1.234   2.152   1.885
  123EMI    N00 2329   1.103   2.314   1.865
  123EMI    C06 2330   0.879   2.541   2.022
  123EMI    H0F 2331   0.875   2.500   2.121
  123EMI    C0N 2332   0.888   2.692   2.036
  123EMI    H0O 2333   0.812   2.725   2.106
  123EMI    H0P 2334   0.984   2.723   2.076
  123EMI    H0Q 2335   0.868   2.740   1.942
  123EMI    N02 2336   0.987   2.475   1.947
  123EMI    H0E 2337   0.790   2.517   1.967
  124EMI    C01 2338   0.506   1.248   3.294
  124EMI    C04 2339   0.548   1.086   3.154
  124EMI    C03 2340   0.462   1.168   3.096
  124EMI    H07 2341   0.511   1.313   3.379
  124EMI    H09 2342   0.592   0.997   3.114
  124EMI    H08 2343   0.420   1.163   2.997
  124EMI    C05 2344   0.346   1.383   3.160
  124EMI    H0B 2345   0.399   1.477   3.167
  124EMI    H0C 2346   0.306   1.375   3.060
  124EMI    H0D 2347   0.266   1.382   3.233
  124EMI    N00 2348   0.435   1.270   3.185
  124EMI    C06 2349   0.684   1.092   3.368
  124EMI    H0F 2350   0.645   1.019   3.437
  124EMI    C0N 2351   0.802   1.038   3.289
  124EMI    H0O 2352   0.877   1.000   3.357
  124EMI    H0P 2353   0.776   0.956   3.224
  124EMI    H0Q 2354   0.848   1.116   3.230
  124EMI    N02 2355   0.576   1.138   3.279
  124EMI    H0E 2356   0.720   1.179   3.421
  125EMI    C01 2357   1.041   3.965   0.864
  125EMI    C04 2358   0.963   3.807   0.738
  125EMI    C03 2359   1.058   3.754   0.814
  125EMI    H07 2360   1.058   4.063   0.905
  125EMI    H09 2361   0.905   3.761   0.661
  125EMI    H08 2362   1.096   3.654   0.812
  125EMI    C05 2363   1.212   3.838   0.993
  125EMI    H0B 2364   1.212   3.926   1.054
  125EMI    H0C 2365   1.191   3.749   1.051
  125EMI    H0D 2366   1.305   3.826   0.939
  125EMI    N00 2367   1.106   3.854   0.894
  125EMI    C06 2368   0.850   4.033   0.718
  125EMI    H0F 2369   0.884   4.070   0.623
  125EMI    C0N 2370   0.717   3.965   0.698
  125EMI    H0O 2371   0.656   4.023   0.631
  125EMI    H0P 2372   0.726   3.870   0.650
  125EMI    H0Q 2373   0.664   3.955   0.792
  125EMI    N02 2374   0.952   3.940   0.770
  125EMI    H0E 2375   0.839   4.116   0.786
  126EMI    C01 2376   2.632   4.442   1.840
  126EMI    C04 2377   2.735   4.505   1.662
  126EMI    C03 2378   2.800   4.399   1.710
  126EMI    H07 2379   2.557   4.434   1.915
  126EMI    H09 2380   2.761   4.564   1.577
  126EMI    H08 2381   2.888   4.351   1.672
  126EMI    C05 2382   2.776   4.251   1.914
  126EMI    H0B 2383   2.697   4.228   1.982
  126EMI    H0C 2384   2.798   4.164   1.854
  126EMI    H0D 2385   2.865   4.280   1.968
  126EMI    N00 2386   2.735   4.361   1.825
  126EMI    C06 2387   2.552   4.659   1.745
  126EMI    H0F 2388   2.577   4.721   1.829
  126EMI    C0N 2389   2.574   4.740   1.618
  126EMI    H0O 2390   2.516   4.831   1.619
  126EMI    H0P 2391   2.677   4.771   1.611
  126EMI    H0Q 2392   2.550   4.682   1.531
  126EMI    N02 2393   2.636   4.538   1.750
  126EMI    H0E 2394   2.449   4.626   1.753
  127EMI    C01 2395   1.102   2.518   1.292
  127EMI    C04 2396   1.082   2.355   1.154
  127EMI    C03 2397   1.041   2.464   1.092
  127EMI    H07 2398   1.132   2.574   1.378
  127EMI    H09 2399   1.094   2.256   1.117
  127EMI    H08 2400   1.010   2.474   0.990
  127EMI    C05 2401   1.000   2.706   1.163
  127EMI    H0B 2402   1.064   2.776   1.214
  127EMI    H0C 2403   0.994   2.731   1.058
  127EMI    H0D 2404   0.901   2.716   1.206
  127EMI    N00 2405   1.046   2.568   1.183
  127EMI    C06 2406   1.098   2.293   1.401
  127EMI    H0F 2407   1.008   2.310   1.458
  127EMI    C0N 2408   1.092   2.149   1.359
  127EMI    H0O 2409   1.093   2.086   1.446
  127EMI    H0P 2410   1.005   2.123   1.301
  127EMI    H0Q 2411   1.180   2.129   1.300
  127EMI    N02 2412   1.100   2.387   1.286
  127EMI    H0E 2413   1.187   2.307   1.461
  128EMI    C01 2414   2.852   1.049   2.451
  128EMI    C04 2415   3.060   1.005   2.404
  128EMI    C03 2416   3.055   1.127   2.456
  128EMI    H07 2417   2.746   1.042   2.454
  128EMI    H09 2418   3.141   0.952   2.359
  128EMI    H08 2419   3.133   1.199   2.467
  128EMI    C05 2420   2.874   1.275   2.551
  128EMI    H0B 2421   2.812   1.331   2.485
  128EMI    H0C 2422   2.809   1.249   2.632
  128EMI    H0D 2423   2.953   1.340   2.585
  128EMI    N00 2424   2.924   1.153   2.488
  128EMI    C06 2425   2.898   0.812   2.390
  128EMI    H0F 2426   2.880   0.793   2.285
  128EMI    C0N 2427   3.005   0.722   2.450
  128EMI    H0O 2428   2.969   0.620   2.452
  128EMI    H0P 2429   3.095   0.724   2.389
  128EMI    H0Q 2430   3.029   0.752   2.551
  128EMI    N02 2431   2.932   0.954   2.408
  128EMI    H0E 2432   2.806   0.794   2.443
  129EMI    C01 2433   2.309   3.306   2.615
  129EMI    C04 2434   2.379   3.216   2.799
  129EMI    C03 2435   2.405   3.132   2.699
  129EMI    H07 2436   2.258   3.373   2.550
  129EMI    H09 2437   2.394   3.203   2.904
  129EMI    H08 2438   2.448   3.035   2.703
  129EMI    C05 2439   2.345   3.122   2.452
  129EMI    H0B 2440   2.350   3.195   2.374
  129EMI    H0C 2441   2.424   3.049   2.441
  129EMI    H0D 2442   2.250   3.072   2.448
  129EMI    N00 2443   2.357   3.188   2.583
  129EMI    C06 2444   2.282   3.450   2.813
  129EMI    H0F 2445   2.187   3.434   2.861
  129EMI    C0N 2446   2.388   3.493   2.911
  129EMI    H0O 2447   2.380   3.598   2.935
  129EMI    H0P 2448   2.376   3.436   3.002
  129EMI    H0Q 2449   2.487   3.475   2.872
  129EMI    N02 2450   2.319   3.326   2.744
  129EMI    H0E 2451   2.275   3.526   2.736
  130EMI    C01 2452   0.840   3.047   2.134
  130EMI    C04 2453   0.782   3.091   2.338
  130EMI    C03 2454   0.676   3.040   2.277
  130EMI    H07 2455   0.893   3.045   2.042
  130EMI    H09 2456   0.790   3.124   2.438
  130EMI    H08 2457   0.576   3.023   2.311
  130EMI    C05 2458   0.630   2.948   2.050
  130EMI    H0B 2459   0.683   2.928   1.958
  130EMI    H0C 2460   0.596   2.856   2.095
  130EMI    H0D 2461   0.544   3.011   2.029
  130EMI    N00 2462   0.715   3.011   2.149
  130EMI    C06 2463   1.008   3.179   2.263
  130EMI    H0F 2464   0.979   3.282   2.268
  130EMI    C0N 2465   1.096   3.134   2.379
  130EMI    H0O 2466   1.182   3.199   2.389
  130EMI    H0P 2467   1.042   3.134   2.472
  130EMI    H0Q 2468   1.134   3.035   2.361
  130EMI    N02 2469   0.882   3.104   2.245
  130EMI    H0E 2470   1.061   3.166   2.171
  131EMI    C01 2471   1.892   1.028   1.602
  131EMI    C04 2472   1.916   1.238   1.555
  131EMI    C03 2473   1.857   1.181   1.452
  131EMI    H07 2474   1.885   0.937   1.658
  131EMI    H09 2475   1.934   1.342   1.572
  131EMI    H08 2476   1.818   1.225   1.363
  131EMI    C05 2477   1.779   0.949   1.393
  131EMI    H0B 2478   1.769   0.855   1.444
  131EMI    H0C 2479   1.681   0.987   1.368
  131EMI    H0D 2480   1.838   0.939   1.303
  131EMI    N00 2481   1.843   1.047   1.481
  131EMI    C06 2482   1.993   1.164   1.785
  131EMI    H0F 2483   2.089   1.118   1.798
  131EMI    C0N 2484   2.005   1.312   1.817
  131EMI    H0O 2485   2.049   1.326   1.915
  131EMI    H0P 2486   2.065   1.368   1.747
  131EMI    H0Q 2487   1.908   1.357   1.817
  131EMI    N02 2488   1.941   1.140   1.649
  131EMI    H0E 2489   1.919   1.127   1.855
  132EMI    C01 2490   3.472   3.047   2.102
  132EMI    C04 2491   3.347   3.175   1.979
  132EMI    C03 2492   3.284   3.155   2.094
  132EMI    H07 2493   3.551   2.983   2.133
  132EMI    H09 2494   3.316   3.223   1.889
  132EMI    H08 2495   3.187   3.183   2.126
  132EMI    C05 2496   3.328   3.021   2.303
  132EMI    H0B 2497   3.413   3.031   2.368
  132EMI    H0C 2498   3.246   3.077   2.344
  132EMI    H0D 2499   3.299   2.917   2.294
  132EMI    N00 2500   3.362   3.072   2.170
  132EMI    C06 2501   3.580   3.130   1.895
  132EMI    H0F 2502   3.558   3.071   1.808
  132EMI    C0N 2503   3.606   3.274   1.862
  132EMI    H0O 2504   3.691   3.283   1.795
  132EMI    H0P 2505   3.523   3.313   1.807
  132EMI    H0Q 2506   3.624   3.333   1.951
  132EMI    N02 2507   3.469   3.113   1.989
  132EMI    H0E 2508   3.667   3.087   1.941
  133EMI    C01 2509   2.176   0.765   1.781
  133EMI    C04 2510   2.330   0.666   1.898
  133EMI    C03 2511   2.229   0.580   1.884
  133EMI    H07 2512   2.119   0.842   1.733
  133EMI    H09 2513   2.419   0.660   1.956
  133EMI    H08 2514   2.214   0.484   1.929
  133EMI    C05 2515   2.007   0.583   1.764
  133EMI    H0B 2516   1.958   0.650   1.696
  133EMI    H0C 2517   2.020   0.486   1.719
  133EMI    H0D 2518   1.945   0.569   1.851
  133EMI    N00 2519   2.134   0.642   1.806
  133EMI    C06 2520   2.348   0.916   1.881
  133EMI    H0F 2521   2.327   0.937   1.985
  133EMI    C0N 2522   2.496   0.917   1.855
  133EMI    H0O 2523   2.533   1.015   1.882
  133EMI    H0P 2524   2.548   0.846   1.918
  133EMI    H0Q 2525   2.520   0.894   1.752
  133EMI    N02 2526   2.287   0.786   1.848
  133EMI    H0E 2527   2.298   0.995   1.826
  134EMI    C01 2528   1.178   4.977   0.993
  134EMI    C04 2529   1.244   4.782   0.927
  134EMI    C03 2530   1.114   4.773   0.952
  134EMI    H07 2531   1.178   0.035   1.019
  134EMI    H09 2532   1.307   4.707   0.888
  134EMI    H08 2533   1.047   4.690   0.942
  134EMI    C05 2534   0.934   4.931   1.017
  134EMI    H0B 2535   0.924   5.028   1.062
  134EMI    H0C 2536   0.883   4.934   0.922
  134EMI    H0D 2537   0.887   4.857   1.080
  134EMI    N00 2538   1.073   4.897   0.990
  134EMI    C06 2539   1.418   4.965   0.927
  134EMI    H0F 2540   1.470   4.978   1.020
  134EMI    C0N 2541   1.502   4.877   0.838
  134EMI    H0O 2542   1.603   4.914   0.833
  134EMI    H0P 2543   1.509   4.775   0.872
  134EMI    H0Q 2544   1.462   4.875   0.738
  134EMI    N02 2545   1.284   4.910   0.953
  134EMI    H0E 2546   1.404   0.014   0.875
  135EMI    C01 2547   0.502   1.541   4.099
  135EMI    C04 2548   0.345   1.548   4.249
  135EMI    C03 2549   0.439   1.636   4.282
  135EMI    H07 2550   0.557   1.513   4.012
  135EMI    H09 2551   0.252   1.526   4.295
  135EMI    H08 2552   0.440   1.707   4.362
  135EMI    C05 2553   0.674   1.688   4.204
  135EMI    H0B 2554   0.700   1.729   4.107
  135EMI    H0C 2555   0.672   1.764   4.280
  135EMI    H0D 2556   0.747   1.613   4.231
  135EMI    N00 2557   0.542   1.624   4.193
  135EMI    C06 2558   0.308   1.396   4.048
  135EMI    H0F 2559   0.323   1.295   4.084
  135EMI    C0N 2560   0.162   1.436   4.041
  135EMI    H0O 2561   0.115   1.386   3.957
  135EMI    H0P 2562   0.109   1.408   4.131
  135EMI    H0Q 2563   0.152   1.543   4.027
  135EMI    N02 2564   0.387   1.488   4.132
  135EMI    H0E 2565   0.349   1.410   3.950
  136EMI    C01 2566   1.030   4.814   4.053
  136EMI    C04 2567   1.164   4.961   4.139
  136EMI    C03 2568   1.178   4.968   4.007
  136EMI    H07 2569   0.951   4.742   4.042
  136EMI    H09 2570   1.211   5.022   4.214
  136EMI    H08 2571   1.238   5.035   3.951
  136EMI    C05 2572   1.049   4.871   3.812
  136EMI    H0B 2573   0.981   4.788   3.798
  136EMI    H0C 2574   0.993   4.960   3.787
  136EMI    H0D 2575   1.135   4.862   3.748
  136EMI    N00 2576   1.087   4.879   3.953
  136EMI    C06 2577   1.017   4.832   4.301
  136EMI    H0F 2578   1.078   4.757   4.348
  136EMI    C0N 2579   1.006   4.956   4.387
  136EMI    H0O 2580   0.959   4.933   4.481
  136EMI    H0P 2581   1.102   5.001   4.409
  136EMI    H0Q 2582   0.943   5.030   4.338
  136EMI    N02 2583   1.073   4.862   4.167
  136EMI    H0E 2584   0.916   4.796   4.285
  137EMI    C01 2585   3.829   1.522   0.342
  137EMI    C04 2586   3.732   1.703   0.416
  137EMI    C03 2587   3.854   1.696   0.469
  137EMI    H07 2588   3.849   1.432   0.288
  137EMI    H09 2589   3.659   1.781   0.421
  137EMI    H08 2590   3.904   1.770   0.528
  137EMI    C05 2591   4.047   1.530   0.461
  137EMI    H0B 2592   4.063   1.430   0.426
  137EMI    H0C 2593   4.123   1.595   0.420
  137EMI    H0D 2594   4.058   1.528   0.569
  137EMI    N00 2595   3.914   1.580   0.424
  137EMI    C06 2596   3.593   1.554   0.269
  137EMI    H0F 2597   3.518   1.539   0.344
  137EMI    C0N 2598   3.550   1.658   0.167
  137EMI    H0O 2599   3.489   1.614   0.089
  137EMI    H0P 2600   3.490   1.734   0.215
  137EMI    H0Q 2601   3.635   1.707   0.121
  137EMI    N02 2602   3.716   1.590   0.340
  137EMI    H0E 2603   3.610   1.460   0.220
  138EMI    C01 2604   4.116   3.026   2.492
  138EMI    C04 2605   4.110   3.227   2.407
  138EMI    C03 2606   4.181   3.150   2.325
  138EMI    H07 2607   4.106   2.946   2.562
  138EMI    H09 2608   4.092   3.331   2.400
  138EMI    H08 2609   4.232   3.178   2.237
  138EMI    C05 2610   4.266   2.911   2.332
  138EMI    H0B 2611   4.228   2.822   2.377
  138EMI    H0C 2612   4.258   2.905   2.225
  138EMI    H0D 2613   4.370   2.926   2.360
  138EMI    N00 2614   4.188   3.024   2.382
  138EMI    C06 2615   3.995   3.193   2.629
  138EMI    H0F 2616   4.062   3.193   2.714
  138EMI    C0N 2617   3.936   3.331   2.604
  138EMI    H0O 2618   3.862   3.353   2.680
  138EMI    H0P 2619   4.014   3.406   2.609
  138EMI    H0Q 2620   3.886   3.336   2.509
  138EMI    N02 2621   4.072   3.148   2.513
  138EMI    H0E 2622   3.915   3.121   2.644
  139EMI    C01 2623   1.620   0.624   1.396
  139EMI    C04 2624   1.510   0.608   1.581
  139EMI    C03 2625   1.624   0.540   1.597
  139EMI    H07 2626   1.646   0.648   1.296
  139EMI    H09 2627   1.433   0.630   1.651
  139EMI    H08 2628   1.663   0.491   1.684
  139EMI    C05 2629   1.820   0.488   1.451
  139EMI    H0B 2630   1.836   0.489   1.345
  139EMI    H0C 2631   1.898   0.540   1.504
  139EMI    H0D 2632   1.812   0.386   1.486
  139EMI    N00 2633   1.692   0.551   1.479
  139EMI    C06 2634   1.394   0.732   1.399
  139EMI    H0F 2635   1.310   0.664   1.396
  139EMI    C0N 2636   1.368   0.858   1.480
  139EMI    H0O 2637   1.283   0.910   1.441
  139EMI    H0P 2638   1.350   0.837   1.584
  139EMI    H0Q 2639   1.454   0.924   1.474
  139EMI    N02 2640   1.507   0.655   1.454
  139EMI    H0E 2641   1.419   0.759   1.298
  140EMI    C01 2642   2.455   4.083   1.999
  140EMI    C04 2643   2.382   3.950   1.842
  140EMI    C03 2644   2.298   4.052   1.852
  140EMI    H07 2645   2.514   4.123   2.079
  140EMI    H09 2646   2.386   3.870   1.773
  140EMI    H08 2647   2.213   4.077   1.792
  140EMI    C05 2648   2.282   4.261   1.994
  140EMI    H0B 2649   2.338   4.346   1.959
  140EMI    H0C 2650   2.182   4.270   1.955
  140EMI    H0D 2651   2.283   4.264   2.102
  140EMI    N00 2652   2.346   4.137   1.949
  140EMI    C06 2653   2.602   3.888   1.953
  140EMI    H0F 2654   2.588   3.822   2.037
  140EMI    C0N 2655   2.638   3.808   1.828
  140EMI    H0O 2656   2.741   3.777   1.832
  140EMI    H0P 2657   2.577   3.719   1.824
  140EMI    H0Q 2658   2.624   3.866   1.738
  140EMI    N02 2659   2.481   3.970   1.937
  140EMI    H0E 2660   2.682   3.959   1.971
  141EMI    C01 2661   2.118   3.991   3.732
  141EMI    C04 2662   2.102   4.208   3.722
  141EMI    C03 2663   2.225   4.174   3.684
  141EMI    H07 2664   2.094   3.887   3.745
  141EMI    H09 2665   2.056   4.304   3.732
  141EMI    H08 2666   2.308   4.235   3.655
  141EMI    C05 2667   2.353   3.956   3.665
  141EMI    H0B 2668   2.330   3.850   3.674
  141EMI    H0C 2669   2.392   3.979   3.568
  141EMI    H0D 2670   2.427   3.978   3.741
  141EMI    N00 2671   2.234   4.036   3.691
  141EMI    C06 2672   1.897   4.082   3.795
  141EMI    H0F 2673   1.882   4.123   3.893
  141EMI    C0N 2674   1.813   4.143   3.686
  141EMI    H0O 2675   1.715   4.097   3.681
  141EMI    H0P 2676   1.802   4.250   3.696
  141EMI    H0Q 2677   1.858   4.122   3.591
  141EMI    N02 2678   2.038   4.092   3.756
  141EMI    H0E 2679   1.879   3.977   3.799
  142EMI    C01 2680   1.000   4.345   0.269
  142EMI    C04 2681   0.794   4.278   0.257
  142EMI    C03 2682   0.872   4.170   0.250
  142EMI    H07 2683   1.087   4.406   0.281
  142EMI    H09 2684   0.687   4.281   0.258
  142EMI    H08 2685   0.844   4.067   0.245
  142EMI    C05 2686   1.124   4.136   0.224
  142EMI    H0B 2687   1.198   4.194   0.172
  142EMI    H0C 2688   1.164   4.110   0.319
  142EMI    H0D 2689   1.101   4.046   0.169
  142EMI    N00 2690   1.003   4.215   0.249
  142EMI    C06 2691   0.834   4.529   0.273
  142EMI    H0F 2692   0.821   4.570   0.175
  142EMI    C0N 2693   0.706   4.550   0.347
  142EMI    H0O 2694   0.660   4.641   0.311
  142EMI    H0P 2695   0.632   4.473   0.334
  142EMI    H0Q 2696   0.729   4.563   0.451
  142EMI    N02 2697   0.876   4.388   0.265
  142EMI    H0E 2698   0.910   4.585   0.328
  143EMI    C01 2699   0.313   4.667   4.031
  143EMI    C04 2700   0.447   4.813   4.119
  143EMI    C03 2701   0.329   4.824   4.180
  143EMI    H07 2702   0.276   4.585   3.972
  143EMI    H09 2703   0.538   4.866   4.138
  143EMI    H08 2704   0.299   4.887   4.260
  143EMI    C05 2705   0.110   4.698   4.172
  143EMI    H0B 2706   0.081   4.601   4.135
  143EMI    H0C 2707   0.107   4.695   4.280
  143EMI    H0D 2708   0.041   4.774   4.136
  143EMI    N00 2709   0.246   4.728   4.126
  143EMI    C06 2710   0.545   4.662   3.939
  143EMI    H0F 2711   0.556   4.728   3.855
  143EMI    C0N 2712   0.677   4.639   4.012
  143EMI    H0O 2713   0.757   4.629   3.939
  143EMI    H0P 2714   0.702   4.720   4.080
  143EMI    H0Q 2715   0.675   4.547   4.069
  143EMI    N02 2716   0.436   4.714   4.024
  143EMI    H0E 2717   0.511   4.566   3.903
  144EMI    C01 2718   2.089   1.876   3.809
  144EMI    C04 2719   1.999   2.072   3.828
  144EMI    C03 2720   1.905   1.981   3.855
  144EMI    H07 2721   2.162   1.800   3.793
  144EMI    H09 2722   1.992   2.179   3.824
  144EMI    H08 2723   1.803   2.001   3.881
  144EMI    C05 2724   1.906   1.725   3.860
  144EMI    H0B 2725   1.977   1.668   3.917
  144EMI    H0C 2726   1.812   1.735   3.911
  144EMI    H0D 2727   1.894   1.682   3.762
  144EMI    N00 2728   1.964   1.857   3.841
  144EMI    C06 2729   2.243   2.060   3.763
  144EMI    H0F 2730   2.245   2.097   3.662
  144EMI    C0N 2731   2.276   2.163   3.867
  144EMI    H0O 2732   2.383   2.169   3.882
  144EMI    H0P 2733   2.236   2.257   3.832
  144EMI    H0Q 2734   2.231   2.137   3.962
  144EMI    N02 2735   2.113   2.003   3.792
  144EMI    H0E 2736   2.313   1.978   3.773
  145EMI    C01 2737   2.891   4.455   1.225
  145EMI    C04 2738   2.690   4.424   1.302
  145EMI    C03 2739   2.709   4.555   1.290
  145EMI    H07 2740   2.992   4.437   1.197
  145EMI    H09 2741   2.607   4.370   1.340
  145EMI    H08 2742   2.646   4.636   1.317
  145EMI    C05 2743   2.913   4.701   1.247
  145EMI    H0B 2744   3.011   4.687   1.203
  145EMI    H0C 2745   2.860   4.777   1.193
  145EMI    H0D 2746   2.928   4.731   1.350
  145EMI    N00 2747   2.839   4.573   1.248
  145EMI    C06 2748   2.841   4.219   1.288
  145EMI    H0F 2749   2.834   4.198   1.393
  145EMI    C0N 2750   2.760   4.123   1.202
  145EMI    H0O 2751   2.795   4.022   1.216
  145EMI    H0P 2752   2.656   4.126   1.229
  145EMI    H0Q 2753   2.772   4.148   1.097
  145EMI    N02 2754   2.809   4.362   1.268
  145EMI    H0E 2755   2.946   4.209   1.267
  146EMI    C01 2756   2.133   2.053   1.482
  146EMI    C04 2757   2.045   2.237   1.559
  146EMI    C03 2758   2.057   2.151   1.660
  146EMI    H07 2759   2.168   1.978   1.414
  146EMI    H09 2760   2.000   2.333   1.555
  146EMI    H08 2761   2.026   2.157   1.761
  146EMI    C05 2762   2.147   1.920   1.691
  146EMI    H0B 2763   2.218   1.860   1.637
  146EMI    H0C 2764   2.188   1.950   1.786
  146EMI    H0D 2765   2.059   1.861   1.708
  146EMI    N00 2766   2.115   2.037   1.611
  146EMI    C06 2767   2.121   2.241   1.320
  146EMI    H0F 2768   2.026   2.246   1.269
  146EMI    C0N 2769   2.196   2.373   1.326
  146EMI    H0O 2770   2.220   2.405   1.226
  146EMI    H0P 2771   2.136   2.450   1.372
  146EMI    H0Q 2772   2.288   2.363   1.382
  146EMI    N02 2773   2.100   2.176   1.449
  146EMI    H0E 2774   2.185   2.172   1.269
  147EMI    C01 2775   3.393   4.006   3.087
  147EMI    C04 2776   3.592   3.964   3.166
  147EMI    C03 2777   3.507   3.969   3.269
  147EMI    H07 2778   3.315   4.027   3.016
  147EMI    H09 2779   3.698   3.947   3.160
  147EMI    H08 2780   3.529   3.957   3.372
  147EMI    C05 2781   3.259   4.019   3.294
  147EMI    H0B 2782   3.176   4.034   3.227
  147EMI    H0C 2783   3.240   3.936   3.360
  147EMI    H0D 2784   3.274   4.108   3.353
  147EMI    N00 2785   3.382   3.996   3.218
  147EMI    C06 2786   3.569   3.991   2.918
  147EMI    H0F 2787   3.642   4.069   2.901
  147EMI    C0N 2788   3.624   3.855   2.893
  147EMI    H0O 2789   3.667   3.850   2.794
  147EMI    H0P 2790   3.702   3.833   2.964
  147EMI    H0Q 2791   3.549   3.779   2.901
  147EMI    N02 2792   3.518   3.993   3.053
  147EMI    H0E 2793   3.485   4.009   2.853
  148EMI    C01 2794   0.184   4.159   4.711
  148EMI    C04 2795   0.144   4.320   4.569
  148EMI    C03 2796   0.142   4.204   4.502
  148EMI    H07 2797   0.208   4.106   4.801
  148EMI    H09 2798   0.130   4.419   4.531
  148EMI    H08 2799   0.126   4.186   4.398
  148EMI    C05 2800   0.185   3.961   4.560
  148EMI    H0B 2801   0.197   3.901   4.649
  148EMI    H0C 2802   0.099   3.925   4.505
  148EMI    H0D 2803   0.273   3.946   4.498
  148EMI    N00 2804   0.169   4.103   4.592
  148EMI    C06 2805   0.205   4.389   4.807
  148EMI    H0F 2806   0.311   4.402   4.812
  148EMI    C0N 2807   0.138   4.524   4.784
  148EMI    H0O 2808   0.158   4.590   4.868
  148EMI    H0P 2809   0.174   4.572   4.694
  148EMI    H0Q 2810   0.030   4.512   4.777
  148EMI    N02 2811   0.177   4.291   4.700
  148EMI    H0E 2812   0.166   4.348   4.899
  149EMI    C01 2813   1.427   0.721   3.457
  149EMI    C04 2814   1.455   0.588   3.290
  149EMI    C03 2815   1.571   0.647   3.312
  149EMI    H07 2816   1.380   0.775   3.538
  149EMI    H09 2817   1.428   0.509   3.224
  149EMI    H08 2818   1.666   0.631   3.267
  149EMI    C05 2819   1.659   0.812   3.480
  149EMI    H0B 2820   1.670   0.787   3.584
  149EMI    H0C 2821   1.753   0.799   3.429
  149EMI    H0D 2822   1.632   0.916   3.476
  149EMI    N00 2823   1.553   0.731   3.419
  149EMI    C06 2824   1.223   0.594   3.388
  149EMI    H0F 2825   1.161   0.666   3.335
  149EMI    C0N 2826   1.200   0.453   3.335
  149EMI    H0O 2827   1.099   0.421   3.357
  149EMI    H0P 2828   1.210   0.449   3.228
  149EMI    H0Q 2829   1.268   0.382   3.380
  149EMI    N02 2830   1.363   0.639   3.377
  149EMI    H0E 2831   1.200   0.592   3.493
  150EMI    C01 2832   0.566   0.595   0.576
  150EMI    C04 2833   0.669   0.446   0.695
  150EMI    C03 2834   0.540   0.438   0.724
  150EMI    H07 2835   0.546   0.666   0.499
  150EMI    H09 2836   0.749   0.383   0.724
  150EMI    H08 2837   0.489   0.364   0.782
  150EMI    C05 2838   0.329   0.529   0.620
  150EMI    H0B 2839   0.306   0.557   0.519
  150EMI    H0C 2840   0.294   0.427   0.632
  150EMI    H0D 2841   0.276   0.590   0.692
  150EMI    N00 2842   0.474   0.528   0.643
  150EMI    C06 2843   0.814   0.578   0.536
  150EMI    H0F 2844   0.870   0.644   0.601
  150EMI    C0N 2845   0.897   0.457   0.502
  150EMI    H0O 2846   0.996   0.486   0.468
  150EMI    H0P 2847   0.912   0.391   0.586
  150EMI    H0Q 2848   0.852   0.398   0.424
  150EMI    N02 2849   0.685   0.545   0.601
  150EMI    H0E 2850   0.788   0.629   0.445
  151EMI    C01 2851   2.125   1.802   4.365
  151EMI    C04 2852   2.186   1.975   4.250
  151EMI    C03 2853   2.296   1.913   4.291
  151EMI    H07 2854   2.064   1.726   4.408
  151EMI    H09 2855   2.177   2.058   4.183
  151EMI    H08 2856   2.398   1.933   4.262
  151EMI    C05 2857   2.340   1.686   4.394
  151EMI    H0B 2858   2.307   1.600   4.337
  151EMI    H0C 2859   2.442   1.708   4.368
  151EMI    H0D 2860   2.332   1.668   4.500
  151EMI    N00 2861   2.255   1.799   4.357
  151EMI    C06 2862   1.941   1.960   4.310
  151EMI    H0F 2863   1.932   2.045   4.377
  151EMI    C0N 2864   1.896   1.996   4.171
  151EMI    H0O 2865   1.791   2.024   4.169
  151EMI    H0P 2866   1.952   2.081   4.132
  151EMI    H0Q 2867   1.912   1.912   4.106
  151EMI    N02 2868   2.080   1.914   4.312
  151EMI    H0E 2869   1.882   1.879   4.348
  152EMI    C01 2870   0.508   4.781   2.181
  152EMI    C04 2871   0.525   4.997   2.206
  152EMI    C03 2872   0.648   4.947   2.193
  152EMI    H07 2873   0.468   4.681   2.177
  152EMI    H09 2874   0.491   0.051   2.222
  152EMI    H08 2875   0.744   4.993   2.196
  152EMI    C05 2876   0.745   4.717   2.204
  152EMI    H0B 2877   0.705   4.617   2.209
  152EMI    H0C 2878   0.813   4.725   2.122
  152EMI    H0D 2879   0.795   4.738   2.297
  152EMI    N00 2880   0.636   4.810   2.186
  152EMI    C06 2881   0.293   4.896   2.227
  152EMI    H0F 2882   0.273   4.908   2.333
  152EMI    C0N 2883   0.230   5.003   2.141
  152EMI    H0O 2884   0.122   4.993   2.139
  152EMI    H0P 2885   0.254   0.057   2.177
  152EMI    H0Q 2886   0.266   4.993   2.040
  152EMI    N02 2887   0.438   4.889   2.206
  152EMI    H0E 2888   0.254   4.800   2.196
  153EMI    C01 2889   3.880   0.806   1.621
  153EMI    C04 2890   3.893   0.854   1.833
  153EMI    C03 2891   4.011   0.883   1.779
  153EMI    H07 2892   3.845   0.765   1.529
  153EMI    H09 2893   3.857   0.857   1.933
  153EMI    H08 2894   4.101   0.919   1.823
  153EMI    C05 2895   4.109   0.860   1.546
  153EMI    H0B 2896   4.070   0.850   1.446
  153EMI    H0C 2897   4.167   0.950   1.555
  153EMI    H0D 2898   4.173   0.775   1.560
  153EMI    N00 2899   4.002   0.851   1.645
  153EMI    C06 2900   3.670   0.772   1.745
  153EMI    H0F 2901   3.658   0.666   1.763
  153EMI    C0N 2902   3.595   0.859   1.844
  153EMI    H0O 2903   3.492   0.862   1.813
  153EMI    H0P 2904   3.599   0.817   1.943
  153EMI    H0Q 2905   3.631   0.961   1.845
  153EMI    N02 2906   3.812   0.804   1.733
  153EMI    H0E 2907   3.630   0.796   1.648
  154EMI    C01 2908   4.602   4.293   0.241
  154EMI    C04 2909   4.525   4.090   0.263
  154EMI    C03 2910   4.658   4.084   0.265
  154EMI    H07 2911   4.606   4.398   0.224
  154EMI    H09 2912   4.455   4.011   0.273
  154EMI    H08 2913   4.724   4.001   0.277
  154EMI    C05 2914   4.848   4.251   0.259
  154EMI    H0B 2915   4.859   4.354   0.288
  154EMI    H0C 2916   4.902   4.190   0.330
  154EMI    H0D 2917   4.891   4.237   0.161
  154EMI    N00 2918   4.706   4.213   0.255
  154EMI    C06 2919   4.352   4.274   0.234
  154EMI    H0F 2920   4.346   4.328   0.141
  154EMI    C0N 2921   4.251   4.162   0.229
  154EMI    H0O 2922   4.155   4.200   0.198
  154EMI    H0P 2923   4.277   4.085   0.158
  154EMI    H0Q 2924   4.240   4.119   0.328
  154EMI    N02 2925   4.490   4.223   0.248
  154EMI    H0E 2926   4.328   4.340   0.317
  155EMI    C01 2927   2.629   0.260   5.028
  155EMI    C04 2928   2.650   0.408   4.870
  155EMI    C03 2929   2.550   0.326   4.837
  155EMI    H07 2930   2.645   0.204   0.072
  155EMI    H09 2931   2.683   0.497   4.820
  155EMI    H08 2932   2.484   0.329   4.753
  155EMI    C05 2933   2.435   0.129   4.945
  155EMI    H0B 2934   2.382   0.135   5.039
  155EMI    H0C 2935   2.365   0.144   4.864
  155EMI    H0D 2936   2.480   0.032   4.932
  155EMI    N00 2937   2.536   0.234   4.938
  155EMI    C06 2938   2.807   0.428   0.026
  155EMI    H0F 2939   2.884   0.353   0.040
  155EMI    C0N 2940   2.868   0.548   5.002
  155EMI    H0O 2941   2.964   0.572   0.001
  155EMI    H0P 2942   2.884   0.532   4.897
  155EMI    H0Q 2943   2.805   0.636   5.011
  155EMI    N02 2944   2.698   0.366   4.992
  155EMI    H0E 2945   2.765   0.463   0.119
  156EMI    C01 2946   3.350   1.347   0.632
  156EMI    C04 2947   3.160   1.416   0.552
  156EMI    C03 2948   3.236   1.523   0.578
  156EMI    H07 2949   3.429   1.284   0.666
  156EMI    H09 2950   3.062   1.413   0.508
  156EMI    H08 2951   3.216   1.627   0.558
  156EMI    C05 2952   3.460   1.560   0.691
  156EMI    H0B 2953   3.553   1.505   0.698
  156EMI    H0C 2954   3.475   1.649   0.631
  156EMI    H0D 2955   3.427   1.589   0.789
  156EMI    N00 2956   3.354   1.478   0.632
  156EMI    C06 2957   3.180   1.166   0.601
  156EMI    H0F 2958   3.118   1.161   0.688
  156EMI    C0N 2959   3.106   1.118   0.479
  156EMI    H0O 2960   3.059   1.022   0.498
  156EMI    H0P 2961   3.029   1.189   0.451
  156EMI    H0Q 2962   3.175   1.107   0.397
  156EMI    N02 2963   3.230   1.305   0.594
  156EMI    H0E 2964   3.266   1.102   0.611
  157EMI    C01 2965   0.684   4.712   4.710
  157EMI    C04 2966   0.649   4.779   4.914
  157EMI    C03 2967   0.680   4.886   4.840
  157EMI    H07 2968   0.683   4.650   4.623
  157EMI    H09 2969   0.621   4.777   5.018
  157EMI    H08 2970   0.682   4.989   4.868
  157EMI    C05 2971   0.696   4.930   4.591
  157EMI    H0B 2972   0.594   4.963   4.573
  157EMI    H0C 2973   0.759   5.016   4.610
  157EMI    H0D 2974   0.729   4.875   4.505
  157EMI    N00 2975   0.692   4.843   4.710
  157EMI    C06 2976   0.597   4.535   4.861
  157EMI    H0F 2977   0.675   4.464   4.841
  157EMI    C0N 2978   0.548   4.521   5.005
  157EMI    H0O 2979   0.518   4.419   5.024
  157EMI    H0P 2980   0.622   4.548   0.034
  157EMI    H0Q 2981   0.460   4.583   5.020
  157EMI    N02 2982   0.647   4.671   4.829
  157EMI    H0E 2983   0.512   4.517   4.798
  158EMI    C01 2984   4.078   3.105   0.195
  158EMI    C04 2985   3.875   3.033   0.209
  158EMI    C03 2986   3.955   2.936   0.252
  158EMI    H07 2987   4.163   3.166   0.176
  158EMI    H09 2988   3.769   3.034   0.199
  158EMI    H08 2989   3.932   2.837   0.287
  158EMI    C05 2990   4.204   2.912   0.282
  158EMI    H0B 2991   4.289   2.963   0.239
  158EMI    H0C 2992   4.213   2.908   0.389
  158EMI    H0D 2993   4.199   2.813   0.241
  158EMI    N00 2994   4.083   2.984   0.244
  158EMI    C06 2995   3.902   3.278   0.148
  158EMI    H0F 2996   3.893   3.292   0.042
  158EMI    C0N 2997   3.768   3.300   0.215
  158EMI    H0O 2998   3.742   3.404   0.222
  158EMI    H0P 2999   3.691   3.254   0.156
  158EMI    H0Q 3000   3.765   3.257   0.315
  158EMI    N02 3001   3.953   3.142   0.176
  158EMI    H0E 3002   3.972   3.350   0.189
  159EMI    C01 3003   3.199   4.283   3.580
  159EMI    C04 3004   3.078   4.267   3.758
  159EMI    C03 3005   3.168   4.363   3.778
  159EMI    H07 3006   3.237   4.273   3.481
  159EMI    H09 3007   2.992   4.240   3.816
  159EMI    H08 3008   3.175   4.438   3.855
  159EMI    C05 3009   3.397   4.396   3.672
  159EMI    H0B 3010   3.425   4.419   3.571
  159EMI    H0C 3011   3.408   4.484   3.735
  159EMI    H0D 3012   3.458   4.315   3.704
  159EMI    N00 3013   3.256   4.356   3.672
  159EMI    C06 3014   3.019   4.111   3.570
  159EMI    H0F 3015   3.025   4.019   3.627
  159EMI    C0N 3016   2.880   4.164   3.558
  159EMI    H0O 3017   2.821   4.108   3.486
  159EMI    H0P 3018   2.833   4.157   3.655
  159EMI    H0Q 3019   2.883   4.268   3.533
  159EMI    N02 3020   3.102   4.214   3.634
  159EMI    H0E 3021   3.060   4.094   3.472
  160EMI    C01 3022   4.744   3.547   1.066
  160EMI    C04 3023   4.819   3.667   1.232
  160EMI    C03 3024   4.687   3.654   1.247
  160EMI    H07 3025   4.741   3.487   0.979
  160EMI    H09 3026   4.889   3.715   1.296
  160EMI    H08 3027   4.624   3.687   1.327
  160EMI    C05 3028   4.501   3.540   1.115
  160EMI    H0B 3029   4.498   3.439   1.077
  160EMI    H0C 3030   4.446   3.542   1.207
  160EMI    H0D 3031   4.456   3.608   1.045
  160EMI    N00 3032   4.640   3.579   1.141
  160EMI    C06 3033   4.988   3.595   1.054
  160EMI    H0F 3034   5.019   3.696   1.031
  160EMI    C0N 3035   0.041   3.520   1.141
  160EMI    H0O 3036   0.140   3.519   1.096
  160EMI    H0P 3037   0.049   3.564   1.239
  160EMI    H0Q 3038   0.008   3.417   1.151
  160EMI    N02 3039   4.853   3.603   1.114
  160EMI    H0E 3040   4.976   3.543   0.960
  161EMI    C01 3041   0.698   4.157   3.680
  161EMI    C04 3042   0.900   4.228   3.650
  161EMI    C03 3043   0.897   4.164   3.767
  161EMI    H07 3044   0.593   4.138   3.665
  161EMI    H09 3045   0.981   4.273   3.597
  161EMI    H08 3046   0.973   4.146   3.839
  161EMI    C05 3047   0.711   4.062   3.907
  161EMI    H0B 3048   0.676   3.963   3.883
  161EMI    H0C 3049   0.785   4.058   3.986
  161EMI    H0D 3050   0.626   4.120   3.941
  161EMI    N00 3051   0.766   4.125   3.787
  161EMI    C06 3052   0.725   4.306   3.485
  161EMI    H0F 3053   0.623   4.332   3.509
  161EMI    C0N 3054   0.800   4.437   3.466
  161EMI    H0O 3055   0.755   4.494   3.386
  161EMI    H0P 3056   0.795   4.496   3.557
  161EMI    H0Q 3057   0.904   4.421   3.443
  161EMI    N02 3058   0.772   4.227   3.599
  161EMI    H0E 3059   0.726   4.241   3.401
  162EMI    C01 3060   1.509   1.218   3.127
  162EMI    C04 3061   1.574   1.049   3.245
  162EMI    C03 3062   1.535   1.144   3.329
  162EMI    H07 3063   1.483   1.278   3.043
  162EMI    H09 3064   1.610   0.950   3.263
  162EMI    H08 3065   1.529   1.139   3.436
  162EMI    C05 3066   1.441   1.377   3.305
  162EMI    H0B 3067   1.367   1.416   3.236
  162EMI    H0C 3068   1.393   1.354   3.399
  162EMI    H0D 3069   1.519   1.450   3.320
  162EMI    N00 3070   1.495   1.251   3.253
  162EMI    C06 3071   1.570   1.016   2.995
  162EMI    H0F 3072   1.670   1.027   2.954
  162EMI    C0N 3073   1.538   0.870   3.020
  162EMI    H0O 3074   1.493   0.827   2.932
  162EMI    H0P 3075   1.626   0.814   3.048
  162EMI    H0Q 3076   1.465   0.856   3.098
  162EMI    N02 3077   1.557   1.096   3.117
  162EMI    H0E 3078   1.495   1.053   2.928
  163EMI    C01 3079   4.126   1.547   4.227
  163EMI    C04 3080   4.158   1.712   4.365
  163EMI    C03 3081   4.244   1.726   4.264
  163EMI    H07 3082   4.088   1.459   4.182
  163EMI    H09 3083   4.144   1.770   4.454
  163EMI    H08 3084   4.320   1.799   4.247
  163EMI    C05 3085   4.282   1.608   4.043
  163EMI    H0B 3086   4.254   1.513   3.999
  163EMI    H0C 3087   4.249   1.687   3.977
  163EMI    H0D 3088   4.389   1.614   4.054
  163EMI    N00 3089   4.218   1.625   4.174
  163EMI    C06 3090   3.971   1.551   4.422
  163EMI    H0F 3091   3.996   1.561   4.527
  163EMI    C0N 3092   3.841   1.619   4.386
  163EMI    H0O 3093   3.757   1.556   4.412
  163EMI    H0P 3094   3.830   1.711   4.440
  163EMI    H0Q 3095   3.835   1.640   4.280
  163EMI    N02 3096   4.083   1.599   4.340
  163EMI    H0E 3097   3.964   1.445   4.407
  164EMI    C01 3098   2.044   2.652   1.170
  164EMI    C04 3099   1.903   2.579   1.320
  164EMI    C03 3100   1.907   2.492   1.219
  164EMI    H07 3101   2.116   2.711   1.118
  164EMI    H09 3102   1.849   2.574   1.412
  164EMI    H08 3103   1.860   2.398   1.204
  164EMI    C05 3104   2.010   2.485   0.992
  164EMI    H0B 3105   2.106   2.436   0.988
  164EMI    H0C 3106   1.934   2.410   0.974
  164EMI    H0D 3107   2.003   2.561   0.916
  164EMI    N00 3108   1.990   2.543   1.124
  164EMI    C06 3109   2.020   2.796   1.371
  164EMI    H0F 3110   1.927   2.843   1.399
  164EMI    C0N 3111   2.095   2.751   1.493
  164EMI    H0O 3112   2.106   2.832   1.563
  164EMI    H0P 3113   2.042   2.671   1.542
  164EMI    H0Q 3114   2.192   2.714   1.468
  164EMI    N02 3115   1.989   2.681   1.286
  164EMI    H0E 3116   2.077   2.869   1.315
  165EMI    C01 3117   1.884   1.664   3.100
  165EMI    C04 3118   1.773   1.484   3.148
  165EMI    C03 3119   1.890   1.478   3.211
  165EMI    H07 3120   1.912   1.761   3.062
  165EMI    H09 3121   1.693   1.414   3.150
  165EMI    H08 3122   1.931   1.404   3.277
  165EMI    C05 3123   2.108   1.603   3.190
  165EMI    H0B 3124   2.129   1.707   3.210
  165EMI    H0C 3125   2.138   1.545   3.275
  165EMI    H0D 3126   2.164   1.570   3.105
  165EMI    N00 3127   1.964   1.587   3.170
  165EMI    C06 3128   1.662   1.647   2.988
  165EMI    H0F 3129   1.694   1.637   2.885
  165EMI    C0N 3130   1.530   1.577   3.008
  165EMI    H0O 3131   1.452   1.631   2.955
  165EMI    H0P 3132   1.534   1.477   2.969
  165EMI    H0Q 3133   1.502   1.575   3.113
  165EMI    N02 3134   1.772   1.601   3.075
  165EMI    H0E 3135   1.646   1.749   3.017
  166EMI    C01 3136   0.683   0.489   3.379
  166EMI    C04 3137   0.860   0.450   3.498
  166EMI    C03 3138   0.841   0.581   3.496
  166EMI    H07 3139   0.602   0.474   3.310
  166EMI    H09 3140   0.942   0.396   3.539
  166EMI    H08 3141   0.903   0.660   3.533
  166EMI    C05 3142   0.666   0.737   3.408
  166EMI    H0B 3143   0.575   0.745   3.465
  166EMI    H0C 3144   0.739   0.808   3.443
  166EMI    H0D 3145   0.650   0.753   3.302
  166EMI    N00 3146   0.725   0.604   3.426
  166EMI    C06 3147   0.744   0.248   3.405
  166EMI    H0F 3148   0.707   0.240   3.303
  166EMI    C0N 3149   0.879   0.178   3.417
  166EMI    H0O 3150   0.873   0.078   3.378
  166EMI    H0P 3151   0.956   0.229   3.360
  166EMI    H0Q 3152   0.911   0.172   3.520
  166EMI    N02 3153   0.757   0.392   3.430
  166EMI    H0E 3154   0.671   0.206   3.472
  167EMI    C01 3155   1.227   3.971   4.869
  167EMI    C04 3156   1.170   3.813   4.733
  167EMI    C03 3157   1.206   3.916   4.659
  167EMI    H07 3158   1.250   4.024   4.959
  167EMI    H09 3159   1.132   3.719   4.702
  167EMI    H08 3160   1.201   3.924   4.553
  167EMI    C05 3161   1.236   4.159   4.704
  167EMI    H0B 3162   1.244   4.223   4.790
  167EMI    H0C 3163   1.321   4.171   4.639
  167EMI    H0D 3164   1.145   4.182   4.651
  167EMI    N00 3165   1.229   4.020   4.746
  167EMI    C06 3166   1.166   3.749   4.972
  167EMI    H0F 3167   1.061   3.737   4.997
  167EMI    C0N 3168   1.224   3.619   4.919
  167EMI    H0O 3169   1.238   3.545   4.995
  167EMI    H0P 3170   1.157   3.570   4.849
  167EMI    H0Q 3171   1.320   3.634   4.871
  167EMI    N02 3172   1.181   3.847   4.865
  167EMI    H0E 3173   1.222   3.782   0.013
  168EMI    C01 3174   3.372   3.483   0.521
  168EMI    C04 3175   3.343   3.526   0.310
  168EMI    C03 3176   3.428   3.424   0.319
  168EMI    H07 3177   3.355   3.480   0.627
  168EMI    H09 3178   3.300   3.569   0.222
  168EMI    H08 3179   3.470   3.365   0.240
  168EMI    C05 3180   3.522   3.289   0.510
  168EMI    H0B 3181   3.497   3.279   0.615
  168EMI    H0C 3182   3.493   3.200   0.457
  168EMI    H0D 3183   3.628   3.307   0.497
  168EMI    N00 3184   3.446   3.399   0.454
  168EMI    C06 3185   3.191   3.645   0.477
  168EMI    H0F 3186   3.228   3.733   0.524
  168EMI    C0N 3187   3.099   3.679   0.360
  168EMI    H0O 3188   2.998   3.693   0.395
  168EMI    H0P 3189   3.131   3.767   0.307
  168EMI    H0Q 3190   3.092   3.598   0.288
  168EMI    N02 3191   3.305   3.561   0.439
  168EMI    H0E 3192   3.134   3.585   0.546
  169EMI    C01 3193   2.312   1.094   1.198
  169EMI    C04 3194   2.184   0.956   1.308
  169EMI    C03 3195   2.164   1.077   1.356
  169EMI    H07 3196   2.373   1.135   1.120
  169EMI    H09 3197   2.130   0.867   1.328
  169EMI    H08 3198   2.093   1.115   1.425
  169EMI    C05 3199   2.236   1.309   1.301
  169EMI    H0B 3200   2.251   1.358   1.207
  169EMI    H0C 3201   2.135   1.334   1.332
  169EMI    H0D 3202   2.307   1.343   1.375
  169EMI    N00 3203   2.244   1.164   1.286
  169EMI    C06 3204   2.352   0.850   1.156
  169EMI    H0F 3205   2.402   0.792   1.231
  169EMI    C0N 3206   2.246   0.772   1.081
  169EMI    H0O 3207   2.287   0.690   1.025
  169EMI    H0P 3208   2.171   0.733   1.149
  169EMI    H0Q 3209   2.196   0.837   1.010
  169EMI    N02 3210   2.289   0.966   1.220
  169EMI    H0E 3211   2.427   0.889   1.090
  170EMI    C01 3212   4.393   3.199   0.372
  170EMI    C04 3213   4.381   3.064   0.541
  170EMI    C03 3214   4.277   3.146   0.549
  170EMI    H07 3215   4.424   3.245   0.280
  170EMI    H09 3216   4.406   2.983   0.605
  170EMI    H08 3217   4.199   3.147   0.622
  170EMI    C05 3218   4.190   3.336   0.411
  170EMI    H0B 3219   4.226   3.403   0.334
  170EMI    H0C 3220   4.098   3.290   0.379
  170EMI    H0D 3221   4.169   3.390   0.501
  170EMI    N00 3222   4.287   3.232   0.442
  170EMI    C06 3223   4.562   3.014   0.375
  170EMI    H0F 3224   4.657   3.047   0.417
  170EMI    C0N 3225   4.539   2.866   0.401
  170EMI    H0O 3226   4.617   2.808   0.355
  170EMI    H0P 3227   4.540   2.841   0.506
  170EMI    H0Q 3228   4.445   2.831   0.358
  170EMI    N02 3229   4.454   3.098   0.430
  170EMI    H0E 3230   4.558   3.030   0.269
  171EMI    C01 3231   4.677   1.120   0.949
  171EMI    C04 3232   4.660   0.914   1.017
  171EMI    C03 3233   4.772   0.965   1.069
  171EMI    H07 3234   4.651   1.213   0.903
  171EMI    H09 3235   4.616   0.818   1.030
  171EMI    H08 3236   4.843   0.919   1.135
  171EMI    C05 3237   4.895   1.184   1.048
  171EMI    H0B 3238   4.857   1.264   1.109
  171EMI    H0C 3239   4.971   1.129   1.102
  171EMI    H0D 3240   4.933   1.220   0.953
  171EMI    N00 3241   4.784   1.093   1.021
  171EMI    C06 3242   4.466   1.010   0.887
  171EMI    H0F 3243   4.466   0.967   0.788
  171EMI    C0N 3244   4.369   0.940   0.980
  171EMI    H0O 3245   4.268   0.955   0.944
  171EMI    H0P 3246   4.387   0.833   0.983
  171EMI    H0Q 3247   4.376   0.979   1.081
  171EMI    N02 3248   4.601   1.013   0.942
  171EMI    H0E 3249   4.436   1.114   0.883
  172EMI    C01 3250   3.033   3.575   3.178
  172EMI    C04 3251   2.934   3.606   3.368
  172EMI    C03 3252   2.957   3.726   3.315
  172EMI    H07 3253   3.077   3.528   3.093
  172EMI    H09 3254   2.885   3.581   3.460
  172EMI    H08 3255   2.929   3.822   3.352
  172EMI    C05 3256   3.076   3.806   3.103
  172EMI    H0B 3257   3.052   3.774   3.003
  172EMI    H0C 3258   3.025   3.900   3.120
  172EMI    H0D 3259   3.183   3.815   3.113
  172EMI    N00 3260   3.025   3.705   3.196
  172EMI    C06 3261   2.998   3.366   3.306
  172EMI    H0F 3262   3.092   3.345   3.355
  172EMI    C0N 3263   2.885   3.306   3.387
  172EMI    H0O 3264   2.916   3.211   3.429
  172EMI    H0P 3265   2.855   3.369   3.470
  172EMI    H0Q 3266   2.800   3.286   3.325
  172EMI    N02 3267   2.988   3.511   3.284
  172EMI    H0E 3268   2.996   3.317   3.210
  173EMI    C01 3269   3.374   2.989   3.922
  173EMI    C04 3270   3.567   2.945   3.829
  173EMI    C03 3271   3.553   2.865   3.934
  173EMI    H07 3272   3.278   3.032   3.944
  173EMI    H09 3273   3.647   2.954   3.759
  173EMI    H08 3274   3.619   2.790   3.974
  173EMI    C05 3275   3.376   2.822   4.107
  173EMI    H0B 3276   3.269   2.812   4.097
  173EMI    H0C 3277   3.422   2.726   4.118
  173EMI    H0D 3278   3.399   2.880   4.195
  173EMI    N00 3279   3.431   2.891   3.990
  173EMI    C06 3280   3.429   3.131   3.726
  173EMI    H0F 3281   3.452   3.230   3.764
  173EMI    C0N 3282   3.495   3.105   3.592
  173EMI    H0O 3283   3.445   3.168   3.519
  173EMI    H0P 3284   3.600   3.129   3.592
  173EMI    H0Q 3285   3.480   3.003   3.562
  173EMI    N02 3286   3.457   3.028   3.827
  173EMI    H0E 3287   3.325   3.120   3.704
  174EMI    C01 3288   3.722   1.381   2.064
  174EMI    C04 3289   3.568   1.274   1.956
  174EMI    C03 3290   3.510   1.377   2.016
  174EMI    H07 3291   3.817   1.407   2.104
  174EMI    H09 3292   3.525   1.195   1.900
  174EMI    H08 3293   3.406   1.398   2.022
  174EMI    C05 3294   3.584   1.550   2.183
  174EMI    H0B 3295   3.667   1.618   2.182
  174EMI    H0C 3296   3.491   1.599   2.159
  174EMI    H0D 3297   3.574   1.506   2.281
  174EMI    N00 3298   3.608   1.441   2.088
  174EMI    C06 3299   3.802   1.185   1.933
  174EMI    H0F 3300   3.781   1.086   1.967
  174EMI    C0N 3301   3.803   1.187   1.784
  174EMI    H0O 3302   3.890   1.134   1.748
  174EMI    H0P 3303   3.715   1.140   1.743
  174EMI    H0Q 3304   3.807   1.290   1.751
  174EMI    N02 3305   3.701   1.277   1.987
  174EMI    H0E 3306   3.898   1.216   1.970
  175EMI    C01 3307   0.733   4.128   1.510
  175EMI    C04 3308   0.820   4.208   1.327
  175EMI    C03 3309   0.719   4.286   1.363
  175EMI    H07 3310   0.716   4.069   1.597
  175EMI    H09 3311   0.884   4.221   1.243
  175EMI    H08 3312   0.685   4.376   1.318
  175EMI    C05 3313   0.535   4.279   1.534
  175EMI    H0B 3314   0.550   4.298   1.639
  175EMI    H0C 3315   0.506   4.372   1.486
  175EMI    H0D 3316   0.455   4.209   1.519
  175EMI    N00 3317   0.659   4.230   1.473
  175EMI    C06 3318   0.935   4.005   1.424
  175EMI    H0F 3319   0.897   3.917   1.375
  175EMI    C0N 3320   1.064   4.052   1.358
  175EMI    H0O 3321   1.145   3.983   1.378
  175EMI    H0P 3322   1.051   4.060   1.251
  175EMI    H0Q 3323   1.093   4.150   1.395
  175EMI    N02 3324   0.829   4.108   1.420
  175EMI    H0E 3325   0.957   3.987   1.528
  176EMI    C01 3326   1.113   1.811   2.546
  176EMI    C04 3327   1.014   1.714   2.713
  176EMI    C03 3328   1.139   1.669   2.710
  176EMI    H07 3329   1.133   1.873   2.461
  176EMI    H09 3330   0.935   1.694   2.781
  176EMI    H08 3331   1.188   1.600   2.775
  176EMI    C05 3332   1.333   1.695   2.550
  176EMI    H0B 3333   1.353   1.761   2.467
  176EMI    H0C 3334   1.409   1.704   2.625
  176EMI    H0D 3335   1.333   1.595   2.513
  176EMI    N00 3336   1.199   1.727   2.600
  176EMI    C06 3337   0.869   1.859   2.567
  176EMI    H0F 3338   0.804   1.784   2.526
  176EMI    C0N 3339   0.801   1.929   2.683
  176EMI    H0O 3340   0.709   1.975   2.649
  176EMI    H0P 3341   0.775   1.859   2.761
  176EMI    H0Q 3342   0.865   2.006   2.723
  176EMI    N02 3343   0.996   1.797   2.605
  176EMI    H0E 3344   0.891   1.931   2.489
  177EMI    C01 3345   1.829   2.824   0.802
  177EMI    C04 3346   1.877   2.856   1.011
  177EMI    C03 3347   1.788   2.758   1.005
  177EMI    H07 3348   1.832   2.831   0.695
  177EMI    H09 3349   1.925   2.898   1.096
  177EMI    H08 3350   1.744   2.699   1.084
  177EMI    C05 3351   1.633   2.672   0.829
  177EMI    H0B 3352   1.634   2.661   0.722
  177EMI    H0C 3353   1.632   2.574   0.876
  177EMI    H0D 3354   1.545   2.726   0.856
  177EMI    N00 3355   1.750   2.747   0.874
  177EMI    C06 3356   2.008   2.994   0.847
  177EMI    H0F 3357   1.972   3.095   0.851
  177EMI    C0N 3358   2.122   2.978   0.944
  177EMI    H0O 3359   2.206   3.037   0.909
  177EMI    H0P 3360   2.095   3.017   1.041
  177EMI    H0Q 3361   2.154   2.876   0.955
  177EMI    N02 3362   1.902   2.899   0.883
  177EMI    H0E 3363   2.043   2.976   0.747
  178EMI    C01 3364   0.125   3.770   0.594
  178EMI    C04 3365   0.316   3.680   0.643
  178EMI    C03 3366   0.322   3.808   0.678
  178EMI    H07 3367   0.026   3.786   0.557
  178EMI    H09 3368   0.391   3.604   0.644
  178EMI    H08 3369   0.405   3.864   0.716
  178EMI    C05 3370   0.153   4.000   0.681
  178EMI    H0B 3371   0.048   4.008   0.658
  178EMI    H0C 3372   0.166   4.025   0.785
  178EMI    H0D 3373   0.205   4.072   0.619
  178EMI    N00 3374   0.198   3.863   0.652
  178EMI    C06 3375   0.141   3.523   0.553
  178EMI    H0F 3376   0.181   3.499   0.456
  178EMI    C0N 3377   0.177   3.418   0.657
  178EMI    H0O 3378   0.136   3.322   0.630
  178EMI    H0P 3379   0.284   3.405   0.663
  178EMI    H0Q 3380   0.141   3.444   0.756
  178EMI    N02 3381   0.191   3.656   0.591
  178EMI    H0E 3382   0.033   3.530   0.548
  179EMI    C01 3383   3.673   1.775   3.369
  179EMI    C04 3384   3.503   1.654   3.308
  179EMI    C03 3385   3.611   1.607   3.245
  179EMI    H07 3386   3.734   1.846   3.422
  179EMI    H09 3387   3.403   1.618   3.303
  179EMI    H08 3388   3.617   1.523   3.181
  179EMI    C05 3389   3.858   1.652   3.256
  179EMI    H0B 3390   3.922   1.713   3.319
  179EMI    H0C 3391   3.879   1.548   3.279
  179EMI    H0D 3392   3.879   1.670   3.153
  179EMI    N00 3393   3.718   1.682   3.288
  179EMI    C06 3394   3.450   1.842   3.468
  179EMI    H0F 3395   3.425   1.933   3.415
  179EMI    C0N 3396   3.322   1.765   3.499
  179EMI    H0O 3397   3.258   1.819   3.567
  179EMI    H0P 3398   3.262   1.747   3.411
  179EMI    H0Q 3399   3.343   1.670   3.546
  179EMI    N02 3400   3.542   1.764   3.381
  179EMI    H0E 3401   3.501   1.860   3.561
  180EMI    C01 3402   3.742   3.305   1.366
  180EMI    C04 3403   3.946   3.306   1.300
  180EMI    C03 3404   3.937   3.395   1.398
  180EMI    H07 3405   3.639   3.279   1.374
  180EMI    H09 3406   4.034   3.277   1.247
  180EMI    H08 3407   4.014   3.457   1.439
  180EMI    C05 3408   3.750   3.465   1.555
  180EMI    H0B 3409   3.648   3.432   1.569
  180EMI    H0C 3410   3.809   3.444   1.643
  180EMI    H0D 3411   3.754   3.570   1.532
  180EMI    N00 3412   3.806   3.391   1.442
  180EMI    C06 3413   3.780   3.166   1.164
  180EMI    H0F 3414   3.725   3.226   1.094
  180EMI    C0N 3415   3.895   3.098   1.092
  180EMI    H0O 3416   3.870   3.077   0.989
  180EMI    H0P 3417   3.986   3.156   1.088
  180EMI    H0Q 3418   3.917   3.004   1.138
  180EMI    N02 3419   3.821   3.257   1.274
  180EMI    H0E 3420   3.718   3.088   1.207
  181EMI    C01 3421   3.276   0.870   4.827
  181EMI    C04 3422   3.190   0.675   4.803
  181EMI    C03 3423   3.097   0.754   4.858
  181EMI    H07 3424   3.338   0.955   4.810
  181EMI    H09 3425   3.179   0.580   4.755
  181EMI    H08 3426   2.991   0.740   4.867
  181EMI    C05 3427   3.081   1.003   4.901
  181EMI    H0B 3428   3.092   1.070   4.817
  181EMI    H0C 3429   2.974   0.984   4.910
  181EMI    H0D 3430   3.116   1.053   4.990
  181EMI    N00 3431   3.153   0.879   4.870
  181EMI    C06 3432   3.429   0.701   4.723
  181EMI    H0F 3433   3.498   0.666   4.797
  181EMI    C0N 3434   3.406   0.591   4.621
  181EMI    H0O 3435   3.494   0.578   4.559
  181EMI    H0P 3436   3.386   0.497   4.669
  181EMI    H0Q 3437   3.323   0.614   4.555
  181EMI    N02 3438   3.305   0.747   4.791
  181EMI    H0E 3439   3.466   0.785   4.667
  182EMI    C01 3440   3.618   4.833   3.155
  182EMI    C04 3441   3.420   4.745   3.127
  182EMI    C03 3442   3.505   4.649   3.161
  182EMI    H07 3443   3.698   4.903   3.162
  182EMI    H09 3444   3.314   4.743   3.113
  182EMI    H08 3445   3.484   4.550   3.186
  182EMI    C05 3446   3.744   4.634   3.236
  182EMI    H0B 3447   3.827   4.703   3.240
  182EMI    H0C 3448   3.725   4.599   3.335
  182EMI    H0D 3449   3.768   4.552   3.170
  182EMI    N00 3450   3.628   4.705   3.181
  182EMI    C06 3451   3.430   4.992   3.109
  182EMI    H0F 3452   3.367   4.983   3.023
  182EMI    C0N 3453   3.358   5.032   3.236
  182EMI    H0O 3454   3.329   0.090   3.237
  182EMI    H0P 3455   3.270   4.971   3.250
  182EMI    H0Q 3456   3.422   5.016   3.321
  182EMI    N02 3457   3.492   4.861   3.127
  182EMI    H0E 3458   3.509   0.013   3.079
  183EMI    C01 3459   2.353   4.590   0.399
  183EMI    C04 3460   2.302   4.396   0.314
  183EMI    C03 3461   2.278   4.490   0.223
  183EMI    H07 3462   2.389   4.668   0.462
  183EMI    H09 3463   2.295   4.291   0.300
  183EMI    H08 3464   2.245   4.480   0.121
  183EMI    C05 3465   2.303   4.742   0.209
  183EMI    H0B 3466   2.396   4.795   0.213
  183EMI    H0C 3467   2.278   4.726   0.105
  183EMI    H0D 3468   2.225   4.804   0.253
  183EMI    N00 3469   2.309   4.612   0.277
  183EMI    C06 3470   2.401   4.394   0.549
  183EMI    H0F 3471   2.340   4.424   0.632
  183EMI    C0N 3472   2.396   4.243   0.542
  183EMI    H0O 3473   2.415   4.199   0.638
  183EMI    H0P 3474   2.301   4.207   0.507
  183EMI    H0Q 3475   2.472   4.205   0.475
  183EMI    N02 3476   2.350   4.461   0.426
  183EMI    H0E 3477   2.505   4.422   0.558
  184EMI    C01 3478   0.183   0.699   2.325
  184EMI    C04 3479   0.343   0.667   2.467
  184EMI    C03 3480   0.303   0.548   2.423
  184EMI    H07 3481   0.109   0.746   2.264
  184EMI    H09 3482   0.416   0.688   2.543
  184EMI    H08 3483   0.333   0.451   2.458
  184EMI    C05 3484   0.129   0.463   2.261
  184EMI    H0B 3485   0.081   0.501   2.172
  184EMI    H0C 3486   0.197   0.383   2.235
  184EMI    H0D 3487   0.055   0.423   2.329
  184EMI    N00 3488   0.203   0.569   2.331
  184EMI    C06 3489   0.267   0.906   2.441
  184EMI    H0F 3490   0.235   0.918   2.544
  184EMI    C0N 3491   0.403   0.969   2.419
  184EMI    H0O 3492   0.401   1.075   2.442
  184EMI    H0P 3493   0.477   0.924   2.485
  184EMI    H0Q 3494   0.436   0.957   2.317
  184EMI    N02 3495   0.263   0.762   2.410
  184EMI    H0E 3496   0.196   0.956   2.379
  185EMI    C01 3497   2.206   1.208   0.567
  185EMI    C04 3498   2.365   1.202   0.714
  185EMI    C03 3499   2.252   1.168   0.775
  185EMI    H07 3500   2.152   1.225   0.478
  185EMI    H09 3501   2.464   1.218   0.751
  185EMI    H08 3502   2.234   1.148   0.878
  185EMI    C05 3503   2.011   1.134   0.701
  185EMI    H0B 3504   1.961   1.117   0.608
  185EMI    H0C 3505   2.003   1.049   0.767
  185EMI    H0D 3506   1.962   1.218   0.747
  185EMI    N00 3507   2.152   1.169   0.680
  185EMI    C06 3508   2.438   1.236   0.475
  185EMI    H0F 3509   2.472   1.338   0.472
  185EMI    C0N 3510   2.553   1.139   0.497
  185EMI    H0O 3511   2.602   1.117   0.403
  185EMI    H0P 3512   2.628   1.187   0.559
  185EMI    H0Q 3513   2.521   1.048   0.544
  185EMI    N02 3514   2.336   1.222   0.581
  185EMI    H0E 3515   2.393   1.213   0.381
  186EMI    C01 3516   3.179   4.408   4.507
  186EMI    C04 3517   2.976   4.357   4.449
  186EMI    C03 3518   3.030   4.248   4.503
  186EMI    H07 3519   3.270   4.462   4.521
  186EMI    H09 3520   2.880   4.372   4.408
  186EMI    H08 3521   2.985   4.153   4.518
  186EMI    C05 3522   3.257   4.187   4.597
  186EMI    H0B 3523   3.352   4.234   4.611
  186EMI    H0C 3524   3.221   4.151   4.693
  186EMI    H0D 3525   3.269   4.101   4.533
  186EMI    N00 3526   3.160   4.280   4.538
  186EMI    C06 3527   3.047   4.592   4.394
  186EMI    H0F 3528   3.049   4.589   4.285
  186EMI    C0N 3529   2.917   4.651   4.445
  186EMI    H0O 3530   2.914   4.758   4.427
  186EMI    H0P 3531   2.832   4.608   4.392
  186EMI    H0Q 3532   2.904   4.632   4.550
  186EMI    N02 3533   3.071   4.456   4.448
  186EMI    H0E 3534   3.129   4.655   4.425
  187EMI    C01 3535   2.610   3.394   0.773
  187EMI    C04 3536   2.685   3.598   0.780
  187EMI    C03 3537   2.783   3.520   0.737
  187EMI    H07 3538   2.548   3.308   0.785
  187EMI    H09 3539   2.683   3.702   0.796
  187EMI    H08 3540   2.883   3.542   0.705
  187EMI    C05 3541   2.823   3.273   0.732
  187EMI    H0B 3542   2.783   3.207   0.657
  187EMI    H0C 3543   2.922   3.302   0.702
  187EMI    H0D 3544   2.827   3.226   0.828
  187EMI    N00 3545   2.738   3.391   0.742
  187EMI    C06 3546   2.453   3.559   0.875
  187EMI    H0F 3547   2.451   3.512   0.973
  187EMI    C0N 3548   2.437   3.708   0.895
  187EMI    H0O 3549   2.337   3.726   0.929
  187EMI    H0P 3550   2.507   3.746   0.968
  187EMI    H0Q 3551   2.452   3.762   0.803
  187EMI    N02 3552   2.578   3.516   0.810
  187EMI    H0E 3553   2.371   3.525   0.814
  188EMI    C01 3554   1.968   4.179   0.318
  188EMI    C04 3555   2.033   4.270   0.131
  188EMI    C03 3556   2.102   4.158   0.148
  188EMI    H07 3557   1.910   4.162   0.406
  188EMI    H09 3558   2.033   4.342   0.052
  188EMI    H08 3559   2.177   4.116   0.083
  188EMI    C05 3560   2.118   3.979   0.326
  188EMI    H0B 3561   2.113   3.983   0.434
  188EMI    H0C 3562   2.063   3.895   0.289
  188EMI    H0D 3563   2.222   3.969   0.297
  188EMI    N00 3564   2.064   4.102   0.268
  188EMI    C06 3565   1.859   4.396   0.263
  188EMI    H0F 3566   1.912   4.487   0.286
  188EMI    C0N 3567   1.770   4.413   0.143
  188EMI    H0O 3568   1.695   4.489   0.163
  188EMI    H0P 3569   1.824   4.442   0.054
  188EMI    H0Q 3570   1.719   4.320   0.122
  188EMI    N02 3571   1.953   4.285   0.242
  188EMI    H0E 3572   1.798   4.374   0.348
  189EMI    C01 3573   0.892   0.485   2.326
  189EMI    C04 3574   0.689   0.474   2.253
  189EMI    C03 3575   0.733   0.350   2.272
  189EMI    H07 3576   0.982   0.524   2.368
  189EMI    H09 3577   0.589   0.506   2.236
  189EMI    H08 3578   0.677   0.258   2.272
  189EMI    C05 3579   0.947   0.245   2.358
  189EMI    H0B 3580   1.051   0.274   2.362
  189EMI    H0C 3581   0.918   0.216   2.458
  189EMI    H0D 3582   0.934   0.161   2.292
  189EMI    N00 3583   0.863   0.358   2.317
  189EMI    C06 3584   0.787   0.707   2.280
  189EMI    H0F 3585   0.810   0.747   2.182
  189EMI    C0N 3586   0.655   0.760   2.330
  189EMI    H0O 3587   0.654   0.867   2.317
  189EMI    H0P 3588   0.569   0.722   2.278
  189EMI    H0Q 3589   0.643   0.740   2.436
  189EMI    N02 3590   0.793   0.559   2.281
  189EMI    H0E 3591   0.863   0.741   2.349
  190EMI    C01 3592   3.855   1.119   1.468
  190EMI    C04 3593   3.690   1.258   1.460
  190EMI    C03 3594   3.797   1.328   1.493
  190EMI    H07 3595   3.911   1.028   1.464
  190EMI    H09 3596   3.589   1.288   1.446
  190EMI    H08 3597   3.804   1.430   1.515
  190EMI    C05 3598   4.034   1.268   1.547
  190EMI    H0B 3599   4.082   1.172   1.558
  190EMI    H0C 3600   4.087   1.328   1.475
  190EMI    H0D 3601   4.032   1.316   1.643
  190EMI    N00 3602   3.901   1.239   1.498
  190EMI    C06 3603   3.631   1.016   1.460
  190EMI    H0F 3604   3.582   1.008   1.556
  190EMI    C0N 3605   3.534   1.040   1.350
  190EMI    H0O 3606   3.455   0.969   1.367
  190EMI    H0P 3607   3.487   1.137   1.349
  190EMI    H0Q 3608   3.580   1.021   1.255
  190EMI    N02 3609   3.725   1.126   1.464
  190EMI    H0E 3610   3.684   0.924   1.440
  191EMI    C01 3611   1.652   4.373   4.238
  191EMI    C04 3612   1.664   4.578   4.306
  191EMI    C03 3613   1.788   4.538   4.278
  191EMI    H07 3614   1.612   4.281   4.203
  191EMI    H09 3615   1.631   4.675   4.336
  191EMI    H08 3616   1.879   4.593   4.280
  191EMI    C05 3617   1.888   4.333   4.169
  191EMI    H0B 3618   1.891   4.353   4.063
  191EMI    H0C 3619   1.980   4.367   4.212
  191EMI    H0D 3620   1.878   4.228   4.188
  191EMI    N00 3621   1.779   4.409   4.231
  191EMI    C06 3622   1.432   4.472   4.296
  191EMI    H0F 3623   1.401   4.445   4.396
  191EMI    C0N 3624   1.374   4.606   4.258
  191EMI    H0O 3625   1.269   4.599   4.234
  191EMI    H0P 3626   1.385   4.674   4.340
  191EMI    H0Q 3627   1.424   4.650   4.172
  191EMI    N02 3628   1.580   4.470   4.288
  191EMI    H0E 3629   1.393   4.400   4.225
  192EMI    C01 3630   3.720   0.259   4.104
  192EMI    C04 3631   3.551   0.358   4.011
  192EMI    C03 3632   3.619   0.296   3.915
  192EMI    H07 3633   3.796   0.232   4.175
  192EMI    H09 3634   3.466   0.422   4.002
  192EMI    H08 3635   3.606   0.299   3.809
  192EMI    C05 3636   3.823   0.147   3.905
  192EMI    H0B 3637   3.796   0.043   3.908
  192EMI    H0C 3638   3.828   0.178   3.801
  192EMI    H0D 3639   3.921   0.165   3.948
  192EMI    N00 3640   3.723   0.229   3.975
  192EMI    C06 3641   3.583   0.399   4.260
  192EMI    H0F 3642   3.661   0.468   4.286
  192EMI    C0N 3643   3.451   0.475   4.254
  192EMI    H0O 3644   3.425   0.516   4.351
  192EMI    H0P 3645   3.453   0.557   4.183
  192EMI    H0Q 3646   3.370   0.409   4.227
  192EMI    N02 3647   3.618   0.338   4.129
  192EMI    H0E 3648   3.570   0.319   4.331
  193EMI    C01 3649   3.202   4.275   0.123
  193EMI    C04 3650   3.027   4.402   0.111
  193EMI    C03 3651   2.985   4.276   0.112
  193EMI    H07 3652   3.303   4.241   0.134
  193EMI    H09 3653   2.971   4.492   0.108
  193EMI    H08 3654   2.885   4.236   0.110
  193EMI    C05 3655   3.098   4.049   0.126
  193EMI    H0B 3656   3.196   4.011   0.102
  193EMI    H0C 3657   3.076   4.018   0.227
  193EMI    H0D 3658   3.025   4.005   0.059
  193EMI    N00 3659   3.097   4.196   0.120
  193EMI    C06 3660   3.250   4.522   0.139
  193EMI    H0F 3661   3.304   4.547   0.049
  193EMI    C0N 3662   3.176   4.643   0.195
  193EMI    H0O 3663   3.247   4.722   0.216
  193EMI    H0P 3664   3.104   4.685   0.127
  193EMI    H0Q 3665   3.126   4.620   0.288
  193EMI    N02 3666   3.165   4.402   0.118
  193EMI    H0E 3667   3.319   4.495   0.217
  194EMI    C01 3668   4.363   2.752   3.655
  194EMI    C04 3669   4.224   2.662   3.795
  194EMI    C03 3670   4.258   2.782   3.842
  194EMI    H07 3671   4.427   2.767   3.570
  194EMI    H09 3672   4.162   2.585   3.837
  194EMI    H08 3673   4.233   2.832   3.932
  194EMI    C05 3674   4.397   2.975   3.763
  194EMI    H0B 3675   4.468   2.994   3.683
  194EMI    H0C 3676   4.321   3.051   3.764
  194EMI    H0D 3677   4.449   2.977   3.857
  194EMI    N00 3678   4.343   2.839   3.751
  194EMI    C06 3679   4.277   2.525   3.589
  194EMI    H0F 3680   4.337   2.443   3.628
  194EMI    C0N 3681   4.132   2.487   3.568
  194EMI    H0O 3682   4.124   2.422   3.482
  194EMI    H0P 3683   4.094   2.432   3.653
  194EMI    H0Q 3684   4.069   2.573   3.552
  194EMI    N02 3685   4.293   2.643   3.678
  194EMI    H0E 3686   4.319   2.553   3.494
  195EMI    C01 3687   1.562   3.406   1.710
  195EMI    C04 3688   1.701   3.419   1.876
  195EMI    C03 3689   1.593   3.489   1.907
  195EMI    H07 3690   1.514   3.379   1.619
  195EMI    H09 3691   1.788   3.397   1.932
  195EMI    H08 3692   1.569   3.540   1.997
  195EMI    C05 3693   1.366   3.524   1.799
  195EMI    H0B 3694   1.305   3.453   1.744
  195EMI    H0C 3695   1.330   3.532   1.900
  195EMI    H0D 3696   1.360   3.621   1.751
  195EMI    N00 3697   1.503   3.476   1.803
  195EMI    C06 3698   1.771   3.269   1.686
  195EMI    H0F 3699   1.850   3.325   1.641
  195EMI    C0N 3700   1.829   3.165   1.779
  195EMI    H0O 3701   1.894   3.098   1.727
  195EMI    H0P 3702   1.884   3.210   1.860
  195EMI    H0Q 3703   1.751   3.103   1.822
  195EMI    N02 3704   1.680   3.364   1.752
  195EMI    H0E 3705   1.714   3.218   1.609
  196EMI    C01 3706   0.429   2.139   0.123
  196EMI    C04 3707   0.223   2.115   0.191
  196EMI    C03 3708   0.242   2.244   0.164
  196EMI    H07 3709   0.531   2.119   0.097
  196EMI    H09 3710   0.135   2.065   0.228
  196EMI    H08 3711   0.174   2.326   0.172
  196EMI    C05 3712   0.444   2.386   0.107
  196EMI    H0B 3713   0.550   2.371   0.105
  196EMI    H0C 3714   0.413   2.426   0.012
  196EMI    H0D 3715   0.419   2.456   0.186
  196EMI    N00 3716   0.374   2.259   0.127
  196EMI    C06 3717   0.368   1.906   0.186
  196EMI    H0F 3718   0.396   1.892   0.289
  196EMI    C0N 3719   0.248   1.821   0.147
  196EMI    H0O 3720   0.274   1.717   0.140
  196EMI    H0P 3721   0.168   1.830   0.220
  196EMI    H0Q 3722   0.207   1.854   0.053
  196EMI    N02 3723   0.343   2.050   0.168
  196EMI    H0E 3724   0.451   1.883   0.122
  197EMI    C01 3725   4.787   2.493   1.443
  197EMI    C04 3726   4.720   2.602   1.270
  197EMI    C03 3727   4.827   2.664   1.318
  197EMI    H07 3728   4.804   2.414   1.513
  197EMI    H09 3729   4.665   2.625   1.183
  197EMI    H08 3730   4.880   2.748   1.279
  197EMI    C05 3731   4.975   2.631   1.522
  197EMI    H0B 3732   5.013   2.540   1.564
  197EMI    H0C 3733   0.008   2.675   1.461
  197EMI    H0D 3734   4.947   2.700   1.600
  197EMI    N00 3735   4.863   2.599   1.434
  197EMI    C06 3736   4.610   2.377   1.316
  197EMI    H0F 3737   4.520   2.384   1.375
  197EMI    C0N 3738   4.576   2.369   1.168
  197EMI    H0O 3739   4.534   2.273   1.143
  197EMI    H0P 3740   4.504   2.445   1.141
  197EMI    H0Q 3741   4.665   2.382   1.108
  197EMI    N02 3742   4.696   2.492   1.349
  197EMI    H0E 3743   4.668   2.289   1.338
  198EMI    C01 3744   3.679   0.648   0.472
  198EMI    C04 3745   3.674   0.470   0.347
  198EMI    C03 3746   3.699   0.431   0.472
  198EMI    H07 3747   3.677   0.749   0.507
  198EMI    H09 3748   3.667   0.409   0.259
  198EMI    H08 3749   3.718   0.333   0.512
  198EMI    C05 3750   3.734   0.551   0.692
  198EMI    H0B 3751   3.763   0.653   0.714
  198EMI    H0C 3752   3.648   0.524   0.752
  198EMI    H0D 3753   3.818   0.487   0.713
  198EMI    N00 3754   3.703   0.545   0.549
  198EMI    C06 3755   3.632   0.692   0.230
  198EMI    H0F 3756   3.721   0.697   0.168
  198EMI    C0N 3757   3.509   0.644   0.156
  198EMI    H0O 3758   3.482   0.712   0.076
  198EMI    H0P 3759   3.526   0.546   0.112
  198EMI    H0Q 3760   3.425   0.637   0.224
  198EMI    N02 3761   3.663   0.608   0.348
  198EMI    H0E 3762   3.612   0.791   0.269
  199EMI    C01 3763   3.989   0.453   2.106
  199EMI    C04 3764   4.086   0.537   1.931
  199EMI    C03 3765   4.091   0.629   2.029
  199EMI    H07 3766   3.936   0.385   2.169
  199EMI    H09 3767   4.124   0.537   1.832
  199EMI    H08 3768   4.136   0.725   2.030
  199EMI    C05 3769   3.978   0.652   2.256
  199EMI    H0B 3770   3.946   0.581   2.330
  199EMI    H0C 3771   4.060   0.710   2.296
  199EMI    H0D 3772   3.895   0.716   2.232
  199EMI    N00 3773   4.021   0.577   2.136
  199EMI    C06 3774   3.986   0.304   1.906
  199EMI    H0F 3775   3.902   0.320   1.841
  199EMI    C0N 3776   4.107   0.251   1.830
  199EMI    H0O 3777   4.086   0.152   1.789
  199EMI    H0P 3778   4.131   0.315   1.747
  199EMI    H0Q 3779   4.194   0.242   1.893
  199EMI    N02 3780   4.015   0.429   1.980
  199EMI    H0E 3781   3.959   0.229   1.980
  200EMI    C01 3782   2.917   4.403   3.018
  200EMI    C04 3783   2.958   4.250   2.872
  200EMI    C03 3784   3.010   4.210   2.988
  200EMI    H07 3785   2.883   4.493   3.064
  200EMI    H09 3786   2.957   4.202   2.777
  200EMI    H08 3787   3.064   4.119   3.007
  200EMI    C05 3788   3.034   4.317   3.219
  200EMI    H0B 3789   2.975   4.389   3.273
  200EMI    H0C 3790   3.025   4.221   3.267
  200EMI    H0D 3791   3.135   4.353   3.223
  200EMI    N00 3792   2.987   4.310   3.080
  200EMI    C06 3793   2.857   4.468   2.786
  200EMI    H0F 3794   2.935   4.538   2.761
  200EMI    C0N 3795   2.812   4.402   2.659
  200EMI    H0O 3796   2.740   4.465   2.609
  200EMI    H0P 3797   2.894   4.389   2.590
  200EMI    H0Q 3798   2.768   4.305   2.676
  200EMI    N02 3799   2.910   4.377   2.890
  200EMI    H0E 3800   2.773   4.519   2.829
  201EMI    C01 3801   2.157   2.739   0.361
  201EMI    C04 3802   2.197   2.925   0.465
  201EMI    C03 3803   2.164   2.955   0.339
  201EMI    H07 3804   2.151   2.635   0.337
  201EMI    H09 3805   2.227   2.989   0.544
  201EMI    H08 3806   2.159   3.050   0.290
  201EMI    C05 3807   2.142   2.817   0.129
  201EMI    H0B 3808   2.162   2.714   0.105
  201EMI    H0C 3809   2.045   2.848   0.093
  201EMI    H0D 3810   2.220   2.876   0.083
  201EMI    N00 3811   2.150   2.835   0.273
  201EMI    C06 3812   2.246   2.707   0.590
  201EMI    H0F 3813   2.352   2.717   0.597
  201EMI    C0N 3814   2.183   2.747   0.720
  201EMI    H0O 3815   2.215   2.682   0.800
  201EMI    H0P 3816   2.217   2.846   0.742
  201EMI    H0Q 3817   2.075   2.743   0.713
  201EMI    N02 3818   2.200   2.787   0.475
  201EMI    H0E 3819   2.227   2.603   0.569
  202EMI    C01 3820   3.583   1.315   5.043
  202EMI    C04 3821   3.663   1.114   0.018
  202EMI    C03 3822   3.766   1.198   0.008
  202EMI    H07 3823   3.516   1.399   5.035
  202EMI    H09 3824   3.666   1.008   0.028
  202EMI    H08 3825   3.872   1.179   0.007
  202EMI    C05 3826   3.795   1.448   5.033
  202EMI    H0B 3827   3.736   1.537   5.044
  202EMI    H0C 3828   3.873   1.450   0.063
  202EMI    H0D 3829   3.844   1.452   4.936
  202EMI    N00 3830   3.715   1.325   5.043
  202EMI    C06 3831   3.410   1.132   0.003
  202EMI    H0F 3832   3.367   1.145   4.950
  202EMI    C0N 3833   3.404   0.987   0.049
  202EMI    H0O 3834   3.301   0.956   0.060
  202EMI    H0P 3835   3.452   0.921   5.023
  202EMI    H0Q 3836   3.451   0.973   0.145
  202EMI    N02 3837   3.548   1.188   0.004
  202EMI    H0E 3838   3.354   1.188   0.075
  203EMI    C01 3839   1.556   4.868   4.746
  203EMI    C04 3840   1.680   4.720   4.645
  203EMI    C03 3841   1.558   4.714   4.593
  203EMI    H07 3842   1.519   4.941   4.814
  203EMI    H09 3843   1.769   4.665   4.622
  203EMI    H08 3844   1.518   4.651   4.518
  203EMI    C05 3845   1.349   4.854   4.611
  203EMI    H0B 3846   1.350   4.956   4.575
  203EMI    H0C 3847   1.309   4.790   4.535
  203EMI    H0D 3848   1.285   4.851   4.697
  203EMI    N00 3849   1.484   4.814   4.650
  203EMI    C06 3850   1.801   4.891   4.785
  203EMI    H0F 3851   1.836   4.849   4.878
  203EMI    C0N 3852   1.906   4.877   4.676
  203EMI    H0O 3853   1.984   4.949   4.686
  203EMI    H0P 3854   1.953   4.780   4.679
  203EMI    H0Q 3855   1.863   4.893   4.578
  203EMI    N02 3856   1.680   4.823   4.737
  203EMI    H0E 3857   1.778   4.996   4.794
  204EMI    C01 3858   4.358   0.976   3.830
  204EMI    C04 3859   4.562   1.026   3.886
  204EMI    C03 3860   4.563   0.905   3.830
  204EMI    H07 3861   4.252   0.981   3.814
  204EMI    H09 3862   4.644   1.081   3.926
  204EMI    H08 3863   4.644   0.837   3.814
  204EMI    C05 3864   4.390   0.748   3.738
  204EMI    H0B 3865   4.379   0.758   3.632
  204EMI    H0C 3866   4.461   0.670   3.762
  204EMI    H0D 3867   4.296   0.719   3.782
  204EMI    N00 3868   4.434   0.874   3.796
  204EMI    C06 3869   4.382   1.193   3.951
  204EMI    H0F 3870   4.298   1.167   4.012
  204EMI    C0N 3871   4.487   1.252   4.043
  204EMI    H0O 3872   4.446   1.335   4.100
  204EMI    H0P 3873   4.527   1.178   4.110
  204EMI    H0Q 3874   4.568   1.291   3.984
  204EMI    N02 3875   4.431   1.070   3.885
  204EMI    H0E 3876   4.355   1.265   3.875
  205EMI    C01 3877   2.731   0.976   1.029
  205EMI    C04 3878   2.670   1.077   0.847
  205EMI    C03 3879   2.631   1.151   0.950
  205EMI    H07 3880   2.777   0.906   1.094
  205EMI    H09 3881   2.667   1.099   0.743
  205EMI    H08 3882   2.589   1.249   0.946
  205EMI    C05 3883   2.661   1.138   1.203
  205EMI    H0B 3884   2.684   1.059   1.271
  205EMI    H0C 3885   2.733   1.217   1.220
  205EMI    H0D 3886   2.564   1.181   1.222
  205EMI    N00 3887   2.672   1.088   1.065
  205EMI    C06 3888   2.811   0.868   0.819
  205EMI    H0F 3889   2.737   0.813   0.764
  205EMI    C0N 3890   2.916   0.925   0.726
  205EMI    H0O 3891   2.961   0.846   0.667
  205EMI    H0P 3892   2.873   0.998   0.658
  205EMI    H0Q 3893   2.995   0.973   0.781
  205EMI    N02 3894   2.737   0.968   0.898
  205EMI    H0E 3895   2.862   0.804   0.889
  206EMI    C01 3896   3.401   4.301   1.741
  206EMI    C04 3897   3.413   4.286   1.524
  206EMI    C03 3898   3.307   4.216   1.564
  206EMI    H07 3899   3.421   4.330   1.842
  206EMI    H09 3900   3.446   4.310   1.425
  206EMI    H08 3901   3.233   4.170   1.502
  206EMI    C05 3902   3.189   4.180   1.786
  206EMI    H0B 3903   3.211   4.203   1.889
  206EMI    H0C 3904   3.097   4.229   1.756
  206EMI    H0D 3905   3.179   4.073   1.778
  206EMI    N00 3906   3.299   4.228   1.701
  206EMI    C06 3907   3.578   4.442   1.638
  206EMI    H0F 3908   3.674   4.398   1.656
  206EMI    C0N 3909   3.580   4.517   1.507
  206EMI    H0O 3910   3.646   4.602   1.518
  206EMI    H0P 3911   3.619   4.457   1.425
  206EMI    H0Q 3912   3.483   4.555   1.480
  206EMI    N02 3913   3.472   4.339   1.637
  206EMI    H0E 3914   3.552   4.515   1.712
  207EMI    C01 3915   4.077   2.388   4.391
  207EMI    C04 3916   4.210   2.541   4.470
  207EMI    C03 3917   4.110   2.524   4.557
  207EMI    H07 3918   4.035   2.314   4.326
  207EMI    H09 3919   4.293   2.610   4.472
  207EMI    H08 3920   4.092   2.576   4.649
  207EMI    C05 3921   3.899   2.383   4.568
  207EMI    H0B 3922   3.845   2.316   4.503
  207EMI    H0C 3923   3.919   2.332   4.661
  207EMI    H0D 3924   3.835   2.468   4.588
  207EMI    N00 3925   4.025   2.429   4.505
  207EMI    C06 3926   4.280   2.436   4.249
  207EMI    H0F 3927   4.260   2.511   4.174
  207EMI    C0N 3928   4.427   2.438   4.289
  207EMI    H0O 3929   4.488   2.407   4.204
  207EMI    H0P 3930   4.459   2.538   4.315
  207EMI    H0Q 3931   4.447   2.371   4.371
  207EMI    N02 3932   4.188   2.456   4.364
  207EMI    H0E 3933   4.261   2.339   4.207
  208EMI    C01 3934   3.472   1.421   3.589
  208EMI    C04 3935   3.442   1.320   3.779
  208EMI    C03 3936   3.423   1.231   3.681
  208EMI    H07 3937   3.498   1.495   3.516
  208EMI    H09 3938   3.434   1.312   3.885
  208EMI    H08 3939   3.394   1.128   3.684
  208EMI    C05 3940   3.458   1.230   3.430
  208EMI    H0B 3941   3.440   1.305   3.354
  208EMI    H0C 3942   3.556   1.189   3.416
  208EMI    H0D 3943   3.385   1.152   3.423
  208EMI    N00 3944   3.449   1.294   3.562
  208EMI    C06 3945   3.543   1.553   3.785
  208EMI    H0F 3946   3.465   1.614   3.827
  208EMI    C0N 3947   3.647   1.510   3.888
  208EMI    H0O 3948   3.687   1.596   3.939
  208EMI    H0P 3949   3.604   1.446   3.964
  208EMI    H0Q 3950   3.730   1.458   3.842
  208EMI    N02 3951   3.480   1.438   3.718
  208EMI    H0E 3952   3.596   1.611   3.711
  209EMI    C01 3953   3.454   2.078   2.346
  209EMI    C04 3954   3.544   1.935   2.483
  209EMI    C03 3955   3.484   1.868   2.385
  209EMI    H07 3956   3.420   2.170   2.304
  209EMI    H09 3957   3.593   1.897   2.570
  209EMI    H08 3958   3.473   1.763   2.371
  209EMI    C05 3959   3.345   1.919   2.186
  209EMI    H0B 3960   3.373   1.979   2.101
  209EMI    H0C 3961   3.364   1.814   2.164
  209EMI    H0D 3962   3.241   1.930   2.212
  209EMI    N00 3963   3.425   1.957   2.301
  209EMI    C06 3964   3.592   2.181   2.525
  209EMI    H0F 3965   3.517   2.248   2.561
  209EMI    C0N 3966   3.683   2.143   2.641
  209EMI    H0O 3967   3.732   2.232   2.678
  209EMI    H0P 3968   3.625   2.104   2.723
  209EMI    H0Q 3969   3.759   2.072   2.613
  209EMI    N02 3970   3.528   2.068   2.455
  209EMI    H0E 3971   3.657   2.224   2.452
  210EMI    C01 3972   2.962   3.806   0.729
  210EMI    C04 3973   2.794   3.944   0.751
  210EMI    C03 3974   2.833   3.907   0.873
  210EMI    H07 3975   3.036   3.742   0.686
  210EMI    H09 3976   2.718   4.011   0.720
  210EMI    H08 3977   2.798   3.934   0.970
  210EMI    C05 3978   2.993   3.734   0.964
  210EMI    H0B 3979   3.099   3.751   0.973
  210EMI    H0C 3980   2.944   3.756   1.058
  210EMI    H0D 3981   2.976   3.630   0.940
  210EMI    N00 3982   2.935   3.816   0.858
  210EMI    C06 3983   2.869   3.892   0.514
  210EMI    H0F 3984   2.820   3.806   0.470
  210EMI    C0N 3985   2.800   4.020   0.473
  210EMI    H0O 3986   2.821   4.041   0.369
  210EMI    H0P 3987   2.693   4.012   0.485
  210EMI    H0Q 3988   2.837   4.102   0.531
  210EMI    N02 3989   2.875   3.877   0.661
  210EMI    H0E 3990   2.971   3.900   0.479
  211EMI    C01 3991   2.056   2.435   3.049
  211EMI    C04 3992   2.084   2.528   3.242
  211EMI    C03 3993   2.067   2.398   3.262
  211EMI    H07 3994   2.045   2.421   2.944
  211EMI    H09 3995   2.096   2.606   3.315
  211EMI    H08 3996   2.061   2.345   3.355
  211EMI    C05 3997   2.014   2.198   3.113
  211EMI    H0B 3998   2.051   2.166   3.018
  211EMI    H0C 3999   2.059   2.137   3.189
  211EMI    H0D 4000   1.907   2.184   3.118
  211EMI    N00 4001   2.046   2.340   3.139
  211EMI    C06 4002   2.045   2.685   3.045
  211EMI    H0F 4003   1.945   2.717   3.070
  211EMI    C0N 4004   2.145   2.791   3.086
  211EMI    H0O 4005   2.108   2.889   3.059
  211EMI    H0P 4006   2.156   2.794   3.194
  211EMI    H0Q 4007   2.241   2.777   3.039
  211EMI    N02 4008   2.063   2.552   3.108
  211EMI    H0E 4009   2.049   2.673   2.938
  212EMI    C01 4010   1.094   0.606   4.897
  212EMI    C04 4011   0.893   0.683   4.870
  212EMI    C03 4012   0.883   0.554   4.901
  212EMI    H07 4013   1.201   0.598   4.901
  212EMI    H09 4014   0.818   0.756   4.851
  212EMI    H08 4015   0.798   0.491   4.914
  212EMI    C05 4016   1.047   0.369   4.960
  212EMI    H0B 4017   1.154   0.359   4.962
  212EMI    H0C 4018   1.009   0.343   0.012
  212EMI    H0D 4019   1.009   0.297   4.888
  212EMI    N00 4020   1.011   0.506   4.918
  212EMI    C06 4021   1.081   0.843   4.818
  212EMI    H0F 4022   1.095   0.842   4.711
  212EMI    C0N 4023   0.992   0.959   4.857
  212EMI    H0O 4024   1.047   1.051   4.850
  212EMI    H0P 4025   0.905   0.967   4.793
  212EMI    H0Q 4026   0.958   0.948   4.959
  212EMI    N02 4027   1.027   0.712   4.858
  212EMI    H0E 4028   1.173   0.858   4.872
  213EMI    C01 4029   0.396   2.383   2.608
  213EMI    C04 4030   0.214   2.501   2.619
  213EMI    C03 4031   0.186   2.391   2.550
  213EMI    H07 4032   0.495   2.347   2.626
  213EMI    H09 4033   0.149   2.581   2.649
  213EMI    H08 4034   0.093   2.358   2.509
  213EMI    C05 4035   0.315   2.180   2.491
  213EMI    H0B 4036   0.367   2.118   2.562
  213EMI    H0C 4037   0.216   2.139   2.475
  213EMI    H0D 4038   0.369   2.182   2.398
  213EMI    N00 4039   0.302   2.316   2.545
  213EMI    C06 4040   0.407   2.578   2.762
  213EMI    H0F 4041   0.457   2.660   2.715
  213EMI    C0N 4042   0.302   2.627   2.860
  213EMI    H0O 4043   0.349   2.668   2.948
  213EMI    H0P 4044   0.241   2.706   2.817
  213EMI    H0Q 4045   0.237   2.547   2.893
  213EMI    N02 4046   0.345   2.493   2.658
  213EMI    H0E 4047   0.475   2.516   2.818
  214EMI    C01 4048   2.525   1.235   1.703
  214EMI    C04 4049   2.373   1.131   1.589
  214EMI    C03 4050   2.314   1.230   1.654
  214EMI    H07 4051   2.618   1.265   1.746
  214EMI    H09 4052   2.333   1.059   1.524
  214EMI    H08 4053   2.212   1.262   1.655
  214EMI    C05 4054   2.384   1.391   1.836
  214EMI    H0B 4055   2.461   1.467   1.829
  214EMI    H0C 4056   2.286   1.435   1.823
  214EMI    H0D 4057   2.387   1.347   1.934
  214EMI    N00 4058   2.409   1.289   1.733
  214EMI    C06 4059   2.611   1.057   1.547
  214EMI    H0F 4060   2.668   1.013   1.625
  214EMI    C0N 4061   2.554   0.941   1.466
  214EMI    H0O 4062   2.635   0.879   1.428
  214EMI    H0P 4063   2.489   0.878   1.525
  214EMI    H0Q 4064   2.498   0.979   1.382
  214EMI    N02 4065   2.508   1.141   1.612
  214EMI    H0E 4066   2.672   1.122   1.487
  215EMI    C01 4067   1.441   3.361   0.119
  215EMI    C04 4068   1.447   3.577   0.117
  215EMI    C03 4069   1.571   3.534   0.097
  215EMI    H07 4070   1.401   3.261   0.119
  215EMI    H09 4071   1.408   3.676   0.111
  215EMI    H08 4072   1.657   3.591   0.071
  215EMI    C05 4073   1.677   3.308   0.077
  215EMI    H0B 4074   1.649   3.246   5.039
  215EMI    H0C 4075   1.766   3.361   0.053
  215EMI    H0D 4076   1.695   3.247   0.164
  215EMI    N00 4077   1.565   3.397   0.099
  215EMI    C06 4078   1.229   3.465   0.193
  215EMI    H0F 4079   1.221   3.393   0.272
  215EMI    C0N 4080   1.183   3.594   0.254
  215EMI    H0O 4081   1.159   3.575   0.357
  215EMI    H0P 4082   1.250   3.677   0.248
  215EMI    H0Q 4083   1.091   3.621   0.203
  215EMI    N02 4084   1.368   3.467   0.143
  215EMI    H0E 4085   1.161   3.441   0.113
  216EMI    C01 4086   1.656   4.356   1.976
  216EMI    C04 4087   1.470   4.350   2.088
  216EMI    C03 4088   1.521   4.472   2.101
  216EMI    H07 4089   1.735   4.332   1.910
  216EMI    H09 4090   1.373   4.314   2.115
  216EMI    H08 4091   1.476   4.560   2.139
  216EMI    C05 4092   1.703   4.598   1.983
  216EMI    H0B 4093   1.757   4.581   1.891
  216EMI    H0C 4094   1.630   4.676   1.964
  216EMI    H0D 4095   1.768   4.628   2.064
  216EMI    N00 4096   1.632   4.477   2.021
  216EMI    C06 4097   1.549   4.131   1.996
  216EMI    H0F 4098   1.529   4.086   2.091
  216EMI    C0N 4099   1.440   4.096   1.900
  216EMI    H0O 4100   1.473   4.025   1.825
  216EMI    H0P 4101   1.359   4.048   1.953
  216EMI    H0Q 4102   1.398   4.185   1.856
  216EMI    N02 4103   1.561   4.275   2.018
  216EMI    H0E 4104   1.645   4.094   1.967
  217EMI    C01 4105   2.473   2.350   3.693
  217EMI    C04 4106   2.632   2.321   3.549
  217EMI    C03 4107   2.526   2.367   3.484
  217EMI    H07 4108   2.420   2.363   3.785
  217EMI    H09 4109   2.730   2.297   3.514
  217EMI    H08 4110   2.515   2.393   3.381
  217EMI    C05 4111   2.281   2.401   3.546
  217EMI    H0B 4112   2.234   2.447   3.632
  217EMI    H0C 4113   2.269   2.468   3.463
  217EMI    H0D 4114   2.227   2.310   3.527
  217EMI    N00 4115   2.422   2.374   3.575
  217EMI    C06 4116   2.688   2.276   3.792
  217EMI    H0F 4117   2.678   2.172   3.819
  217EMI    C0N 4118   2.832   2.311   3.763
  217EMI    H0O 4119   2.888   2.305   3.855
  217EMI    H0P 4120   2.876   2.243   3.692
  217EMI    H0Q 4121   2.838   2.413   3.725
  217EMI    N02 4122   2.597   2.308   3.681
  217EMI    H0E 4123   2.657   2.339   3.873
  218EMI    C01 4124   3.857   2.372   0.131
  218EMI    C04 4125   3.813   2.584   0.112
  218EMI    C03 4126   3.939   2.566   0.074
  218EMI    H07 4127   3.844   2.267   0.145
  218EMI    H09 4128   3.752   2.672   0.112
  218EMI    H08 4129   4.009   2.636   0.033
  218EMI    C05 4130   4.091   2.363   0.047
  218EMI    H0B 4131   4.088   2.262   0.086
  218EMI    H0C 4132   4.096   2.359   4.984
  218EMI    H0D 4133   4.176   2.416   0.086
  218EMI    N00 4134   3.966   2.431   0.087
  218EMI    C06 4135   3.623   2.433   0.187
  218EMI    H0F 4136   3.604   2.464   0.288
  218EMI    C0N 4137   3.530   2.497   0.086
  218EMI    H0O 4138   3.429   2.463   0.104
  218EMI    H0P 4139   3.530   2.605   0.089
  218EMI    H0Q 4140   3.557   2.467   5.030
  218EMI    N02 4141   3.764   2.462   0.152
  218EMI    H0E 4142   3.610   2.326   0.182
  219EMI    C01 4143   3.153   1.216   2.754
  219EMI    C04 4144   3.343   1.158   2.838
  219EMI    C03 4145   3.343   1.291   2.822
  219EMI    H07 4146   3.052   1.210   2.722
  219EMI    H09 4147   3.418   1.096   2.880
  219EMI    H08 4148   3.417   1.364   2.847
  219EMI    C05 4149   3.193   1.454   2.697
  219EMI    H0B 4150   3.100   1.491   2.735
  219EMI    H0C 4151   3.269   1.526   2.724
  219EMI    H0D 4152   3.192   1.445   2.589
  219EMI    N00 4153   3.226   1.325   2.758
  219EMI    C06 4154   3.185   0.971   2.769
  219EMI    H0F 4155   3.215   0.935   2.671
  219EMI    C0N 4156   3.243   0.885   2.879
  219EMI    H0O 4157   3.199   0.787   2.875
  219EMI    H0P 4158   3.349   0.875   2.867
  219EMI    H0Q 4159   3.225   0.928   2.976
  219EMI    N02 4160   3.225   1.112   2.783
  219EMI    H0E 4161   3.077   0.968   2.776
  220EMI    C01 4162   2.676   3.225   1.986
  220EMI    C04 4163   2.653   3.435   2.040
  220EMI    C03 4164   2.560   3.366   2.106
  220EMI    H07 4165   2.714   3.134   1.945
  220EMI    H09 4166   2.674   3.540   2.042
  220EMI    H08 4167   2.487   3.401   2.176
  220EMI    C05 4168   2.495   3.121   2.119
  220EMI    H0B 4169   2.502   3.040   2.048
  220EMI    H0C 4170   2.533   3.090   2.215
  220EMI    H0D 4171   2.391   3.150   2.126
  220EMI    N00 4172   2.574   3.234   2.069
  220EMI    C06 4173   2.847   3.375   1.887
  220EMI    H0F 4174   2.819   3.399   1.786
  220EMI    C0N 4175   2.928   3.487   1.950
  220EMI    H0O 4176   3.030   3.485   1.913
  220EMI    H0P 4177   2.884   3.583   1.930
  220EMI    H0Q 4178   2.935   3.476   2.057
  220EMI    N02 4179   2.725   3.345   1.964
  220EMI    H0E 4180   2.906   3.285   1.887
  221EMI    C01 4181   0.202   3.639   2.035
  221EMI    C04 4182   0.208   3.425   2.073
  221EMI    C03 4183   0.221   3.443   1.941
  221EMI    H07 4184   0.196   3.744   2.051
  221EMI    H09 4185   0.205   3.334   2.131
  221EMI    H08 4186   0.231   3.369   1.866
  221EMI    C05 4187   0.222   3.648   1.789
  221EMI    H0B 4188   0.234   3.754   1.805
  221EMI    H0C 4189   0.307   3.613   1.734
  221EMI    H0D 4190   0.131   3.630   1.734
  221EMI    N00 4191   0.218   3.580   1.919
  221EMI    C06 4192   0.181   3.577   2.274
  221EMI    H0F 4193   0.093   3.529   2.312
  221EMI    C0N 4194   0.303   3.534   2.349
  221EMI    H0O 4195   0.283   3.546   2.455
  221EMI    H0P 4196   0.322   3.430   2.329
  221EMI    H0Q 4197   0.391   3.590   2.323
  221EMI    N02 4198   0.195   3.549   2.130
  221EMI    H0E 4199   0.168   3.683   2.286
  222EMI    C01 4200   0.105   1.226   2.301
  222EMI    C04 4201   4.935   1.240   2.336
  222EMI    C03 4202   4.993   1.349   2.388
  222EMI    H07 4203   0.203   1.192   2.272
  222EMI    H09 4204   4.833   1.210   2.332
  222EMI    H08 4205   4.952   1.434   2.438
  222EMI    C05 4206   0.185   1.437   2.408
  222EMI    H0B 4207   0.260   1.449   2.332
  222EMI    H0C 4208   0.142   1.533   2.431
  222EMI    H0D 4209   0.233   1.399   2.498
  222EMI    N00 4210   0.083   1.340   2.365
  222EMI    C06 4211   5.019   1.031   2.216
  222EMI    H0F 4212   5.038   0.951   2.285
  222EMI    C0N 4213   4.881   1.015   2.156
  222EMI    H0O 4214   4.875   0.928   2.092
  222EMI    H0P 4215   4.804   1.002   2.233
  222EMI    H0Q 4216   4.856   1.102   2.097
  222EMI    N02 4217   5.037   1.161   2.285
  222EMI    H0E 4218   0.044   1.030   2.133
  223EMI    C01 4219   4.916   3.810   1.905
  223EMI    C04 4220   4.961   3.774   2.114
  223EMI    C03 4221   4.960   3.907   2.095
  223EMI    H07 4222   4.893   3.793   1.803
  223EMI    H09 4223   4.980   3.717   2.203
  223EMI    H08 4224   4.978   3.986   2.165
  223EMI    C05 4225   4.892   4.056   1.901
  223EMI    H0B 4226   4.831   4.041   1.813
  223EMI    H0C 4227   4.837   4.119   1.970
  223EMI    H0D 4228   4.982   4.107   1.870
  223EMI    N00 4229   4.923   3.928   1.964
  223EMI    C06 4230   4.916   3.570   1.967
  223EMI    H0F 4231   5.001   3.527   1.918
  223EMI    C0N 4232   4.890   3.493   2.095
  223EMI    H0O 4233   4.856   3.393   2.070
  223EMI    H0P 4234   4.980   3.482   2.153
  223EMI    H0Q 4235   4.815   3.539   2.157
  223EMI    N02 4236   4.935   3.714   1.993
  223EMI    H0E 4237   4.829   3.558   1.904
  224EMI    C01 4238   4.267   1.555   1.331
  224EMI    C04 4239   4.291   1.771   1.337
  224EMI    C03 4240   4.278   1.734   1.209
  224EMI    H07 4241   4.265   1.451   1.357
  224EMI    H09 4242   4.310   1.869   1.373
  224EMI    H08 4243   4.283   1.788   1.117
  224EMI    C05 4244   4.254   1.518   1.086
  224EMI    H0B 4245   4.227   1.415   1.103
  224EMI    H0C 4246   4.185   1.565   1.018
  224EMI    H0D 4247   4.352   1.519   1.041
  224EMI    N00 4248   4.263   1.598   1.207
  224EMI    C06 4249   4.312   1.644   1.558
  224EMI    H0F 4250   4.408   1.595   1.574
  224EMI    C0N 4251   4.306   1.777   1.630
  224EMI    H0O 4252   4.310   1.762   1.737
  224EMI    H0P 4253   4.387   1.842   1.601
  224EMI    H0Q 4254   4.212   1.825   1.606
  224EMI    N02 4255   4.291   1.655   1.412
  224EMI    H0E 4256   4.234   1.581   1.598
  225EMI    C01 4257   2.134   0.281   4.855
  225EMI    C04 4258   2.064   0.316   4.653
  225EMI    C03 4259   2.045   0.187   4.681
  225EMI    H07 4260   2.178   0.299   4.951
  225EMI    H09 4261   2.044   0.370   4.563
  225EMI    H08 4262   2.006   0.110   4.617
  225EMI    C05 4263   2.092   0.037   4.882
  225EMI    H0B 4264   2.153   0.043   4.970
  225EMI    H0C 4265   1.992   0.009   4.912
  225EMI    H0D 4266   2.134   5.003   4.821
  225EMI    N00 4267   2.090   0.165   4.810
  225EMI    C06 4268   2.172   0.512   4.772
  225EMI    H0F 4269   2.253   0.526   4.702
  225EMI    C0N 4270   2.061   0.613   4.752
  225EMI    H0O 4271   2.103   0.704   4.713
  225EMI    H0P 4272   1.991   0.579   4.677
  225EMI    H0Q 4273   2.009   0.633   4.844
  225EMI    N02 4274   2.126   0.373   4.762
  225EMI    H0E 4275   2.214   0.526   4.870
  226EMI    C01 4276   3.231   2.257   3.810
  226EMI    C04 4277   3.426   2.299   3.897
  226EMI    C03 4278   3.445   2.218   3.793
  226EMI    H07 4279   3.125   2.249   3.799
  226EMI    H09 4280   3.493   2.335   3.972
  226EMI    H08 4281   3.535   2.172   3.757
  226EMI    C05 4282   3.290   2.085   3.643
  226EMI    H0B 4283   3.187   2.092   3.612
  226EMI    H0C 4284   3.356   2.095   3.558
  226EMI    H0D 4285   3.305   1.990   3.693
  226EMI    N00 4286   3.320   2.188   3.742
  226EMI    C06 4287   3.226   2.376   4.029
  226EMI    H0F 4288   3.240   2.311   4.115
  226EMI    C0N 4289   3.280   2.515   4.051
  226EMI    H0O 4290   3.210   2.575   4.108
  226EMI    H0P 4291   3.373   2.509   4.104
  226EMI    H0Q 4292   3.300   2.562   3.956
  226EMI    N02 4293   3.290   2.315   3.912
  226EMI    H0E 4294   3.120   2.378   4.010
  227EMI    C01 4295   2.901   3.297   4.497
  227EMI    C04 4296   3.016   3.272   4.679
  227EMI    C03 4297   3.075   3.368   4.607
  227EMI    H07 4298   2.821   3.291   4.426
  227EMI    H09 4299   3.042   3.237   4.777
  227EMI    H08 4300   3.159   3.426   4.634
  227EMI    C05 4301   3.022   3.481   4.385
  227EMI    H0B 4302   2.924   3.512   4.350
  227EMI    H0C 4303   3.074   3.566   4.426
  227EMI    H0D 4304   3.077   3.435   4.305
  227EMI    N00 4305   3.000   3.383   4.491
  227EMI    C06 4306   2.788   3.160   4.668
  227EMI    H0F 4307   2.752   3.097   4.589
  227EMI    C0N 4308   2.828   3.076   4.789
  227EMI    H0O 4309   2.741   3.023   4.825
  227EMI    H0P 4310   2.904   3.004   4.762
  227EMI    H0Q 4311   2.864   3.137   4.870
  227EMI    N02 4312   2.900   3.238   4.614
  227EMI    H0E 4313   2.711   3.230   4.696
  228EMI    C01 4314   4.419   2.087   4.185
  228EMI    C04 4315   4.292   2.012   4.025
  228EMI    C03 4316   4.216   2.025   4.134
  228EMI    H07 4317   4.505   2.123   4.237
  228EMI    H09 4318   4.262   1.985   3.926
  228EMI    H08 4319   4.110   2.010   4.142
  228EMI    C05 4320   4.257   2.091   4.375
  228EMI    H0B 4321   4.321   2.166   4.421
  228EMI    H0C 4322   4.154   2.121   4.379
  228EMI    H0D 4323   4.269   1.999   4.431
  228EMI    N00 4324   4.298   2.069   4.236
  228EMI    C06 4325   4.536   2.054   3.966
  228EMI    H0F 4326   4.594   1.963   3.972
  228EMI    C0N 4327   4.488   2.076   3.824
  228EMI    H0O 4328   4.573   2.095   3.760
  228EMI    H0P 4329   4.437   1.990   3.783
  228EMI    H0Q 4330   4.423   2.163   3.816
  228EMI    N02 4331   4.421   2.047   4.059
  228EMI    H0E 4332   4.596   2.139   3.992
  229EMI    C01 4333   0.885   3.608   4.437
  229EMI    C04 4334   0.709   3.737   4.450
  229EMI    C03 4335   0.746   3.704   4.574
  229EMI    H07 4336   0.965   3.549   4.399
  229EMI    H09 4337   0.627   3.798   4.421
  229EMI    H08 4338   0.702   3.732   4.667
  229EMI    C05 4339   0.926   3.559   4.676
  229EMI    H0B 4340   1.023   3.524   4.645
  229EMI    H0C 4341   0.934   3.629   4.758
  229EMI    H0D 4342   0.869   3.473   4.710
  229EMI    N00 4343   0.856   3.621   4.564
  229EMI    C06 4344   0.795   3.687   4.217
  229EMI    H0F 4345   0.732   3.609   4.178
  229EMI    C0N 4346   0.748   3.823   4.169
  229EMI    H0O 4347   0.758   3.829   4.061
  229EMI    H0P 4348   0.643   3.840   4.192
  229EMI    H0Q 4349   0.805   3.904   4.213
  229EMI    N02 4350   0.797   3.674   4.364
  229EMI    H0E 4351   0.897   3.674   4.184
  230EMI    C01 4352   3.358   2.714   3.651
  230EMI    C04 4353   3.352   2.502   3.608
  230EMI    C03 4354   3.234   2.554   3.575
  230EMI    H07 4355   3.391   2.811   3.682
  230EMI    H09 4356   3.386   2.401   3.601
  230EMI    H08 4357   3.146   2.504   3.539
  230EMI    C05 4358   3.133   2.788   3.579
  230EMI    H0B 4359   3.163   2.860   3.505
  230EMI    H0C 4360   3.042   2.737   3.550
  230EMI    H0D 4361   3.112   2.840   3.671
  230EMI    N00 4362   3.240   2.689   3.600
  230EMI    C06 4363   3.561   2.588   3.725
  230EMI    H0F 4364   3.547   2.560   3.828
  230EMI    C0N 4365   3.651   2.490   3.652
  230EMI    H0O 4366   3.753   2.499   3.687
  230EMI    H0P 4367   3.620   2.388   3.667
  230EMI    H0Q 4368   3.652   2.509   3.545
  230EMI    N02 4369   3.427   2.602   3.665
  230EMI    H0E 4370   3.608   2.684   3.718
  231EMI    C01 4371   1.050   4.571   3.259
  231EMI    C04 4372   1.107   4.779   3.286
  231EMI    C03 4373   1.219   4.707   3.287
  231EMI    H07 4374   0.991   4.484   3.241
  231EMI    H09 4375   1.093   4.885   3.292
  231EMI    H08 4376   1.321   4.739   3.293
  231EMI    C05 4377   1.273   4.462   3.252
  231EMI    H0B 4378   1.219   4.378   3.212
  231EMI    H0C 4379   1.350   4.484   3.181
  231EMI    H0D 4380   1.313   4.432   3.347
  231EMI    N00 4381   1.182   4.575   3.269
  231EMI    C06 4382   0.861   4.731   3.257
  231EMI    H0F 4383   0.815   4.741   3.354
  231EMI    C0N 4384   0.851   4.859   3.178
  231EMI    H0O 4385   0.748   4.877   3.151
  231EMI    H0P 4386   0.884   4.942   3.238
  231EMI    H0Q 4387   0.908   4.856   3.087
  231EMI    N02 4388   1.001   4.692   3.274
  231EMI    H0E 4389   0.809   4.655   3.199
  232EMI    C01 4390   1.241   3.178   2.971
  232EMI    C04 4391   1.350   3.013   3.061
  232EMI    C03 4392   1.294   2.969   2.949
  232EMI    H07 4393   1.206   3.278   2.951
  232EMI    H09 4394   1.412   2.964   3.132
  232EMI    H08 4395   1.300   2.873   2.903
  232EMI    C05 4396   1.144   3.068   2.770
  232EMI    H0B 4397   1.154   3.163   2.720
  232EMI    H0C 4398   1.185   2.990   2.707
  232EMI    H0D 4399   1.039   3.046   2.789
  232EMI    N00 4400   1.219   3.072   2.896
  232EMI    C06 4401   1.359   3.235   3.185
  232EMI    H0F 4402   1.317   3.197   3.276
  232EMI    C0N 4403   1.510   3.247   3.197
  232EMI    H0O 4404   1.536   3.294   3.291
  232EMI    H0P 4405   1.557   3.150   3.196
  232EMI    H0Q 4406   1.550   3.309   3.118
  232EMI    N02 4407   1.315   3.146   3.075
  232EMI    H0E 4408   1.318   3.333   3.168
  233EMI    C01 4409   1.326   1.507   4.817
  233EMI    C04 4410   1.189   1.381   4.929
  233EMI    C03 4411   1.257   1.302   4.846
  233EMI    H07 4412   1.376   1.594   4.778
  233EMI    H09 4413   1.109   1.360   4.997
  233EMI    H08 4414   1.248   1.198   4.828
  233EMI    C05 4415   1.426   1.338   4.664
  233EMI    H0B 4416   1.529   1.329   4.695
  233EMI    H0C 4417   1.391   1.246   4.622
  233EMI    H0D 4418   1.423   1.413   4.586
  233EMI    N00 4419   1.341   1.383   4.774
  233EMI    C06 4420   1.177   1.628   4.977
  233EMI    H0F 4421   1.089   1.663   4.926
  233EMI    C0N 4422   1.146   1.600   0.077
  233EMI    H0O 4423   1.128   1.694   0.129
  233EMI    H0P 4424   1.055   1.542   0.085
  233EMI    H0Q 4425   1.228   1.549   0.126
  233EMI    N02 4426   1.230   1.510   4.907
  233EMI    H0E 4427   1.254   1.705   4.974
  234EMI    C01 4428   1.557   4.005   2.336
  234EMI    C04 4429   1.725   4.139   2.312
  234EMI    C03 4430   1.616   4.213   2.335
  234EMI    H07 4431   1.495   3.918   2.336
  234EMI    H09 4432   1.825   4.169   2.294
  234EMI    H08 4433   1.602   4.319   2.340
  234EMI    C05 4434   1.370   4.160   2.372
  234EMI    H0B 4435   1.310   4.070   2.372
  234EMI    H0C 4436   1.359   4.207   2.468
  234EMI    H0D 4437   1.330   4.223   2.296
  234EMI    N00 4438   1.510   4.126   2.351
  234EMI    C06 4439   1.769   3.888   2.293
  234EMI    H0F 4440   1.776   3.866   2.188
  234EMI    C0N 4441   1.906   3.905   2.355
  234EMI    H0O 4442   1.962   3.813   2.356
  234EMI    H0P 4443   1.960   3.976   2.296
  234EMI    H0Q 4444   1.898   3.942   2.456
  234EMI    N02 4445   1.685   4.007   2.311
  234EMI    H0E 4446   1.717   3.808   2.344
  235EMI    C01 4447   2.733   3.039   0.280
  235EMI    C04 4448   2.586   2.894   0.215
  235EMI    C03 4449   2.656   2.839   0.314
  235EMI    H07 4450   2.791   3.129   0.289
  235EMI    H09 4451   2.505   2.854   0.158
  235EMI    H08 4452   2.648   2.741   0.357
  235EMI    C05 4453   2.822   2.919   0.480
  235EMI    H0B 4454   2.889   3.003   0.488
  235EMI    H0C 4455   2.753   2.920   0.564
  235EMI    H0D 4456   2.876   2.826   0.476
  235EMI    N00 4457   2.743   2.934   0.359
  235EMI    C06 4458   2.561   3.121   0.117
  235EMI    H0F 4459   2.557   3.088   0.014
  235EMI    C0N 4460   2.426   3.140   0.182
  235EMI    H0O 4461   2.372   3.221   0.135
  235EMI    H0P 4462   2.366   3.050   0.174
  235EMI    H0Q 4463   2.438   3.162   0.287
  235EMI    N02 4464   2.633   3.021   0.197
  235EMI    H0E 4465   2.619   3.212   0.117
  236EMI    C01 4466   0.695   4.477   0.750
  236EMI    C04 4467   0.565   4.644   0.698
  236EMI    C03 4468   0.531   4.541   0.621
  236EMI    H07 4469   0.767   4.415   0.799
  236EMI    H09 4470   0.523   4.742   0.701
  236EMI    H08 4471   0.455   4.535   0.546
  236EMI    C05 4472   0.631   4.312   0.577
  236EMI    H0B 4473   0.662   4.237   0.647
  236EMI    H0C 4474   0.536   4.286   0.533
  236EMI    H0D 4475   0.707   4.323   0.502
  236EMI    N00 4476   0.617   4.438   0.651
  236EMI    C06 4477   0.734   4.683   0.882
  236EMI    H0F 4478   0.817   4.736   0.840
  236EMI    C0N 4479   0.634   4.777   0.944
  236EMI    H0O 4480   0.671   4.815   1.038
  236EMI    H0P 4481   0.611   4.860   0.879
  236EMI    H0Q 4482   0.541   4.725   0.966
  236EMI    N02 4483   0.671   4.603   0.776
  236EMI    H0E 4484   0.763   4.613   0.958
  237EMI    C01 4485   2.716   0.596   3.633
  237EMI    C04 4486   2.709   0.387   3.692
  237EMI    C03 4487   2.813   0.444   3.753
  237EMI    H07 4488   2.688   0.691   3.593
  237EMI    H09 4489   2.676   0.285   3.696
  237EMI    H08 4490   2.883   0.400   3.821
  237EMI    C05 4491   2.907   0.680   3.765
  237EMI    H0B 4492   2.865   0.778   3.750
  237EMI    H0C 4493   2.924   0.666   3.871
  237EMI    H0D 4494   3.002   0.672   3.713
  237EMI    N00 4495   2.815   0.577   3.717
  237EMI    C06 4496   2.535   0.468   3.521
  237EMI    H0F 4497   2.573   0.462   3.421
  237EMI    C0N 4498   2.451   0.347   3.552
  237EMI    H0O 4499   2.361   0.347   3.493
  237EMI    H0P 4500   2.504   0.254   3.532
  237EMI    H0Q 4501   2.422   0.346   3.656
  237EMI    N02 4502   2.652   0.484   3.611
  237EMI    H0E 4503   2.472   0.555   3.537
  238EMI    C01 4504   4.692   0.392   2.852
  238EMI    C04 4505   4.704   0.588   2.759
  238EMI    C03 4506   4.724   0.604   2.890
  238EMI    H07 4507   4.682   0.286   2.867
  238EMI    H09 4508   4.707   0.659   2.680
  238EMI    H08 4509   4.747   0.689   2.947
  238EMI    C05 4510   4.728   0.453   3.090
  238EMI    H0B 4511   4.757   0.350   3.104
  238EMI    H0C 4512   4.801   0.517   3.134
  238EMI    H0D 4513   4.632   0.468   3.137
  238EMI    N00 4514   4.716   0.479   2.947
  238EMI    C06 4515   4.679   0.389   2.603
  238EMI    H0F 4516   4.578   0.359   2.582
  238EMI    C0N 4517   4.729   0.479   2.491
  238EMI    H0O 4518   4.764   0.416   2.410
  238EMI    H0P 4519   4.651   0.545   2.455
  238EMI    H0Q 4520   4.814   0.539   2.520
  238EMI    N02 4521   4.686   0.453   2.736
  238EMI    H0E 4522   4.746   0.304   2.610
  239EMI    C01 4523   0.288   2.588   4.192
  239EMI    C04 4524   0.429   2.504   4.335
  239EMI    C03 4525   0.498   2.579   4.249
  239EMI    H07 4526   0.198   2.611   4.139
  239EMI    H09 4527   0.463   2.453   4.423
  239EMI    H08 4528   0.601   2.607   4.248
  239EMI    C05 4529   0.440   2.704   4.036
  239EMI    H0B 4530   0.383   2.795   4.039
  239EMI    H0C 4531   0.544   2.728   4.030
  239EMI    H0D 4532   0.410   2.649   3.948
  239EMI    N00 4533   0.408   2.628   4.156
  239EMI    C06 4534   0.188   2.421   4.347
  239EMI    H0F 4535   0.168   2.339   4.278
  239EMI    C0N 4536   0.218   2.367   4.486
  239EMI    H0O 4537   0.130   2.319   4.527
  239EMI    H0P 4538   0.298   2.295   4.484
  239EMI    H0Q 4539   0.246   2.448   4.552
  239EMI    N02 4540   0.298   2.501   4.291
  239EMI    H0E 4541   0.103   2.487   4.354
  240EMI    C01 4542   2.220   1.433   4.891
  240EMI    C04 4543   2.259   1.366   4.688
  240EMI    C03 4544   2.334   1.292   4.770
  240EMI    H07 4545   2.179   1.486   4.975
  240EMI    H09 4546   2.250   1.361   4.582
  240EMI    H08 4547   2.402   1.213   4.749
  240EMI    C05 4548   2.391   1.303   5.015
  240EMI    H0B 4549   2.346   1.341   0.061
  240EMI    H0C 4550   2.402   1.197   5.015
  240EMI    H0D 4551   2.491   1.343   5.008
  240EMI    N00 4552   2.314   1.341   4.897
  240EMI    C06 4553   2.118   1.574   4.714
  240EMI    H0F 4554   2.181   1.657   4.686
  240EMI    C0N 4555   2.037   1.521   4.598
  240EMI    H0O 4556   1.952   1.584   4.576
  240EMI    H0P 4557   2.097   1.515   4.508
  240EMI    H0Q 4558   1.997   1.423   4.620
  240EMI    N02 4559   2.200   1.464   4.765
  240EMI    H0E 4560   2.052   1.603   4.794
  241EMI    C01 4561   4.737   1.775   2.820
  241EMI    C04 4562   4.770   1.859   2.622
  241EMI    C03 4563   4.804   1.951   2.713
  241EMI    H07 4564   4.719   1.707   2.901
  241EMI    H09 4565   4.783   1.865   2.516
  241EMI    H08 4566   4.850   2.047   2.702
  241EMI    C05 4567   4.778   1.972   2.965
  241EMI    H0B 4568   4.812   1.907   3.043
  241EMI    H0C 4569   4.848   2.053   2.956
  241EMI    H0D 4570   4.683   2.015   2.993
  241EMI    N00 4571   4.772   1.900   2.837
  241EMI    C06 4572   4.680   1.621   2.632
  241EMI    H0F 4573   4.573   1.619   2.635
  241EMI    C0N 4574   4.733   1.603   2.491
  241EMI    H0O 4575   4.726   1.500   2.461
  241EMI    H0P 4576   4.676   1.664   2.421
  241EMI    H0Q 4577   4.837   1.632   2.484
  241EMI    N02 4578   4.724   1.749   2.692
  241EMI    H0E 4579   4.723   1.543   2.693
  242EMI    C01 4580   1.352   0.348   0.618
  242EMI    C04 4581   1.267   0.485   0.473
  242EMI    C03 4582   1.287   0.368   0.411
  242EMI    H07 4583   1.380   0.301   0.710
  242EMI    H09 4584   1.226   0.576   0.436
  242EMI    H08 4585   1.266   0.336   0.312
  242EMI    C05 4586   1.357   0.139   0.487
  242EMI    H0B 4587   1.396   0.093   0.576
  242EMI    H0C 4588   1.262   0.096   0.459
  242EMI    H0D 4589   1.425   0.127   0.405
  242EMI    N00 4590   1.337   0.282   0.506
  242EMI    C06 4591   1.265   0.560   0.715
  242EMI    H0F 4592   1.335   0.641   0.715
  242EMI    C0N 4593   1.124   0.615   0.706
  242EMI    H0O 4594   1.106   0.688   0.784
  242EMI    H0P 4595   1.106   0.663   0.611
  242EMI    H0Q 4596   1.051   0.537   0.717
  242EMI    N02 4597   1.302   0.469   0.605
  242EMI    H0E 4598   1.274   0.504   0.806
  243EMI    C01 4599   2.860   4.099   4.791
  243EMI    C04 4600   2.676   4.189   4.719
  243EMI    C03 4601   2.767   4.285   4.724
  243EMI    H07 4602   2.930   4.025   4.825
  243EMI    H09 4603   2.575   4.194   4.688
  243EMI    H08 4604   2.756   4.387   4.697
  243EMI    C05 4605   2.994   4.308   4.827
  243EMI    H0B 4606   3.073   4.243   4.861
  243EMI    H0C 4607   3.026   4.374   4.749
  243EMI    H0D 4608   2.957   4.369   4.908
  243EMI    N00 4609   2.879   4.229   4.781
  243EMI    C06 4610   2.673   3.942   4.730
  243EMI    H0F 4611   2.603   3.926   4.810
  243EMI    C0N 4612   2.611   3.943   4.590
  243EMI    H0O 4613   2.575   3.847   4.559
  243EMI    H0P 4614   2.528   4.011   4.579
  243EMI    H0Q 4615   2.683   3.974   4.515
  243EMI    N02 4616   2.737   4.072   4.754
  243EMI    H0E 4617   2.747   3.863   4.738
  244EMI    C01 4618   4.184   2.014   0.551
  244EMI    C04 4619   4.306   2.110   0.701
  244EMI    C03 4620   4.378   2.010   0.648
  244EMI    H07 4621   4.100   1.985   0.492
  244EMI    H09 4622   4.330   2.175   0.781
  244EMI    H08 4623   4.475   1.974   0.674
  244EMI    C05 4624   4.336   1.835   0.469
  244EMI    H0B 4625   4.258   1.817   0.397
  244EMI    H0C 4626   4.430   1.852   0.417
  244EMI    H0D 4627   4.345   1.748   0.533
  244EMI    N00 4628   4.300   1.952   0.551
  244EMI    C06 4629   4.072   2.206   0.666
  244EMI    H0F 4630   3.999   2.162   0.733
  244EMI    C0N 4631   4.123   2.338   0.720
  244EMI    H0O 4632   4.052   2.418   0.703
  244EMI    H0P 4633   4.138   2.330   0.827
  244EMI    H0Q 4634   4.216   2.367   0.673
  244EMI    N02 4635   4.181   2.109   0.642
  244EMI    H0E 4636   4.025   2.226   0.571
  245EMI    C01 4637   2.343   3.632   0.206
  245EMI    C04 4638   2.275   3.459   0.096
  245EMI    C03 4639   2.403   3.479   0.066
  245EMI    H07 4640   2.348   3.713   0.274
  245EMI    H09 4641   2.213   3.378   0.064
  245EMI    H08 4642   2.469   3.419   0.007
  245EMI    C05 4643   2.582   3.644   0.142
  245EMI    H0B 4644   2.601   3.695   0.234
  245EMI    H0C 4645   2.652   3.561   0.138
  245EMI    H0D 4646   2.603   3.708   0.058
  245EMI    N00 4647   2.445   3.590   0.136
  245EMI    C06 4648   2.098   3.581   0.235
  245EMI    H0F 4649   2.047   3.649   0.170
  245EMI    C0N 4650   2.014   3.455   0.252
  245EMI    H0O 4651   1.909   3.481   0.251
  245EMI    H0P 4652   2.029   3.382   0.173
  245EMI    H0Q 4653   2.033   3.405   0.346
  245EMI    N02 4654   2.235   3.560   0.180
  245EMI    H0E 4655   2.110   3.624   0.332
  246EMI    C01 4656   0.682   1.372   0.831
  246EMI    C04 4657   0.704   1.584   0.782
  246EMI    C03 4658   0.779   1.514   0.698
  246EMI    H07 4659   0.654   1.281   0.878
  246EMI    H09 4660   0.694   1.690   0.788
  246EMI    H08 4661   0.846   1.547   0.622
  246EMI    C05 4662   0.813   1.268   0.649
  246EMI    H0B 4663   0.741   1.228   0.580
  246EMI    H0C 4664   0.899   1.304   0.593
  246EMI    H0D 4665   0.850   1.191   0.714
  246EMI    N00 4666   0.760   1.380   0.725
  246EMI    C06 4667   0.550   1.527   0.973
  246EMI    H0F 4668   0.602   1.589   1.042
  246EMI    C0N 4669   0.423   1.591   0.923
  246EMI    H0O 4670   0.348   1.595   1.001
  246EMI    H0P 4671   0.441   1.692   0.888
  246EMI    H0Q 4672   0.382   1.533   0.841
  246EMI    N02 4673   0.644   1.493   0.866
  246EMI    H0E 4674   0.527   1.433   1.021
  247EMI    C01 4675   1.859   1.636   0.379
  247EMI    C04 4676   1.937   1.778   0.521
  247EMI    C03 4677   2.040   1.713   0.467
  247EMI    H07 4678   1.792   1.581   0.321
  247EMI    H09 4679   1.934   1.856   0.594
  247EMI    H08 4680   2.145   1.723   0.482
  247EMI    C05 4681   2.053   1.495   0.335
  247EMI    H0B 4682   1.986   1.441   0.271
  247EMI    H0C 4683   2.142   1.522   0.280
  247EMI    H0D 4684   2.081   1.435   0.420
  247EMI    N00 4685   1.987   1.615   0.386
  247EMI    C06 4686   1.690   1.712   0.542
  247EMI    H0F 4687   1.695   1.653   0.632
  247EMI    C0N 4688   1.639   1.850   0.566
  247EMI    H0O 4689   1.533   1.846   0.585
  247EMI    H0P 4690   1.690   1.893   0.651
  247EMI    H0Q 4691   1.656   1.912   0.479
  247EMI    N02 4692   1.824   1.712   0.479
  247EMI    H0E 4693   1.623   1.664   0.473
  248EMI    C01 4694   3.388   3.733   1.791
  248EMI    C04 4695   3.594   3.724   1.724
  248EMI    C03 4696   3.564   3.607   1.781
  248EMI    H07 4697   3.291   3.770   1.814
  248EMI    H09 4698   3.687   3.757   1.685
  248EMI    H08 4699   3.628   3.524   1.799
  248EMI    C05 4700   3.350   3.498   1.860
  248EMI    H0B 4701   3.251   3.531   1.886
  248EMI    H0C 4702   3.344   3.427   1.779
  248EMI    H0D 4703   3.397   3.451   1.945
  248EMI    N00 4704   3.431   3.612   1.815
  248EMI    C06 4705   3.470   3.941   1.680
  248EMI    H0F 4706   3.439   4.003   1.763
  248EMI    C0N 4707   3.602   3.998   1.634
  248EMI    H0O 4708   3.590   4.095   1.588
  248EMI    H0P 4709   3.669   4.009   1.718
  248EMI    H0Q 4710   3.648   3.933   1.560
  248EMI    N02 4711   3.481   3.802   1.728
  248EMI    H0E 4712   3.400   3.945   1.598
  249EMI    C01 4713   3.363   1.523   4.601
  249EMI    C04 4714   3.300   1.629   4.781
  249EMI    C03 4715   3.334   1.720   4.690
  249EMI    H07 4716   3.389   1.446   4.532
  249EMI    H09 4717   3.268   1.642   4.882
  249EMI    H08 4718   3.337   1.827   4.699
  249EMI    C05 4719   3.425   1.710   4.453
  249EMI    H0B 4720   3.427   1.636   4.375
  249EMI    H0C 4721   3.363   1.792   4.422
  249EMI    H0D 4722   3.527   1.741   4.471
  249EMI    N00 4723   3.373   1.652   4.576
  249EMI    C06 4724   3.299   1.375   4.787
  249EMI    H0F 4725   3.380   1.362   4.857
  249EMI    C0N 4726   3.164   1.366   4.853
  249EMI    H0O 4727   3.153   1.276   4.912
  249EMI    H0P 4728   3.147   1.450   4.920
  249EMI    H0Q 4729   3.086   1.367   4.778
  249EMI    N02 4730   3.321   1.505   4.724
  249EMI    H0E 4731   3.304   1.300   4.709
  250EMI    C01 4732   1.996   5.034   4.061
  250EMI    C04 4733   1.980   4.822   4.105
  250EMI    C03 4734   1.890   4.886   4.180
  250EMI    H07 4735   2.032   0.082   4.025
  250EMI    H09 4736   2.003   4.718   4.104
  250EMI    H08 4737   1.822   4.850   4.254
  250EMI    C05 4738   1.839   0.083   4.228
  250EMI    H0B 4739   1.840   0.176   4.173
  250EMI    H0C 4740   1.737   0.057   4.251
  250EMI    H0D 4741   1.893   0.096   4.321
  250EMI    N00 4742   1.904   5.020   4.154
  250EMI    C06 4743   2.160   4.893   3.938
  250EMI    H0F 4744   2.251   4.924   3.988
  250EMI    C0N 4745   2.172   4.748   3.894
  250EMI    H0O 4746   2.256   4.737   3.826
  250EMI    H0P 4747   2.189   4.683   3.978
  250EMI    H0Q 4748   2.084   4.715   3.842
  250EMI    N02 4749   2.048   4.917   4.032
  250EMI    H0E 4750   2.142   4.953   3.849
  251EMI    C01 4751   2.151   4.933   1.313
  251EMI    C04 4752   2.193   4.744   1.215
  251EMI    C03 4753   2.063   4.748   1.244
  251EMI    H07 4754   2.161   5.030   1.358
  251EMI    H09 4755   2.251   4.668   1.167
  251EMI    H08 4756   1.985   4.679   1.223
  251EMI    C05 4757   1.921   4.896   1.396
  251EMI    H0B 4758   1.925   4.998   1.431
  251EMI    H0C 4759   1.832   4.889   1.335
  251EMI    H0D 4760   1.912   4.832   1.482
  251EMI    N00 4761   2.041   4.863   1.317
  251EMI    C06 4762   2.392   4.898   1.258
  251EMI    H0F 4763   2.439   4.866   1.350
  251EMI    C0N 4764   2.466   4.840   1.140
  251EMI    H0O 4765   2.567   4.878   1.141
  251EMI    H0P 4766   2.472   4.732   1.145
  251EMI    H0Q 4767   2.419   4.869   1.046
  251EMI    N02 4768   2.249   4.861   1.263
  251EMI    H0E 4769   2.396   5.005   1.249
  252EMI    C01 4770   2.636   2.383   1.231
  252EMI    C04 4771   2.725   2.216   1.338
  252EMI    C03 4772   2.816   2.313   1.332
  252EMI    H07 4773   2.568   2.441   1.174
  252EMI    H09 4774   2.733   2.121   1.383
  252EMI    H08 4775   2.916   2.317   1.370
  252EMI    C05 4776   2.817   2.551   1.253
  252EMI    H0B 4777   2.780   2.623   1.323
  252EMI    H0C 4778   2.921   2.536   1.276
  252EMI    H0D 4779   2.806   2.581   1.150
  252EMI    N00 4780   2.755   2.420   1.271
  252EMI    C06 4781   2.494   2.179   1.245
  252EMI    H0F 4782   2.509   2.124   1.154
  252EMI    C0N 4783   2.463   2.088   1.363
  252EMI    H0O 4784   2.371   2.035   1.345
  252EMI    H0P 4785   2.540   2.013   1.376
  252EMI    H0Q 4786   2.454   2.144   1.455
  252EMI    N02 4787   2.616   2.258   1.267
  252EMI    H0E 4788   2.412   2.247   1.231
  253EMI    C01 4789   1.039   1.646   4.068
  253EMI    C04 4790   1.060   1.447   3.982
  253EMI    C03 4791   1.019   1.529   3.886
  253EMI    H07 4792   1.036   1.728   4.136
  253EMI    H09 4793   1.072   1.341   3.980
  253EMI    H08 4794   0.990   1.507   3.785
  253EMI    C05 4795   0.953   1.773   3.874
  253EMI    H0B 4796   1.026   1.852   3.872
  253EMI    H0C 4797   0.927   1.743   3.774
  253EMI    H0D 4798   0.864   1.807   3.923
  253EMI    N00 4799   1.006   1.654   3.941
  253EMI    C06 4800   1.110   1.474   4.230
  253EMI    H0F 4801   1.019   1.492   4.284
  253EMI    C0N 4802   1.135   1.325   4.238
  253EMI    H0O 4803   1.157   1.299   4.341
  253EMI    H0P 4804   1.047   1.270   4.209
  253EMI    H0Q 4805   1.218   1.293   4.176
  253EMI    N02 4806   1.076   1.523   4.096
  253EMI    H0E 4807   1.195   1.528   4.268
  254EMI    C01 4808   2.157   0.613   3.163
  254EMI    C04 4809   2.190   0.646   2.951
  254EMI    C03 4810   2.286   0.565   2.995
  254EMI    H07 4811   2.115   0.621   3.261
  254EMI    H09 4812   2.174   0.689   2.855
  254EMI    H08 4813   2.369   0.525   2.942
  254EMI    C05 4814   2.332   0.446   3.215
  254EMI    H0B 4815   2.260   0.380   3.261
  254EMI    H0C 4816   2.403   0.387   3.159
  254EMI    H0D 4817   2.382   0.502   3.293
  254EMI    N00 4818   2.260   0.539   3.128
  254EMI    C06 4819   1.989   0.760   3.058
  254EMI    H0F 4820   2.025   0.861   3.052
  254EMI    C0N 4821   1.887   0.728   2.949
  254EMI    H0O 4822   1.828   0.816   2.931
  254EMI    H0P 4823   1.934   0.700   2.856
  254EMI    H0Q 4824   1.820   0.649   2.981
  254EMI    N02 4825   2.108   0.675   3.059
  254EMI    H0E 4826   1.940   0.752   3.154
  255EMI    C01 4827   0.353   1.095   1.574
  255EMI    C04 4828   0.304   0.989   1.757
  255EMI    C03 4829   0.220   1.091   1.747
  255EMI    H07 4830   0.395   1.118   1.479
  255EMI    H09 4831   0.312   0.915   1.833
  255EMI    H08 4832   0.141   1.120   1.811
  255EMI    C05 4833   0.179   1.270   1.572
  255EMI    H0B 4834   0.129   1.233   1.484
  255EMI    H0C 4835   0.106   1.303   1.643
  255EMI    H0D 4836   0.249   1.348   1.546
  255EMI    N00 4837   0.251   1.157   1.630
  255EMI    C06 4838   0.495   0.898   1.615
  255EMI    H0F 4839   0.583   0.953   1.587
  255EMI    C0N 4840   0.531   0.809   1.731
  255EMI    H0O 4841   0.610   0.743   1.701
  255EMI    H0P 4842   0.565   0.866   1.817
  255EMI    H0Q 4843   0.446   0.748   1.757
  255EMI    N02 4844   0.387   0.992   1.647
  255EMI    H0E 4845   0.460   0.835   1.534
  256EMI    C01 4846   4.219   1.012   0.316
  256EMI    C04 4847   4.110   1.195   0.274
  256EMI    C03 4848   4.020   1.098   0.289
  256EMI    H07 4849   4.299   0.942   0.336
  256EMI    H09 4850   4.099   1.298   0.253
  256EMI    H08 4851   3.914   1.103   0.283
  256EMI    C05 4852   4.033   0.847   0.317
  256EMI    H0B 4853   4.110   0.778   0.350
  256EMI    H0C 4854   3.951   0.845   0.387
  256EMI    H0D 4855   3.999   0.817   0.219
  256EMI    N00 4856   4.091   0.981   0.311
  256EMI    C06 4857   4.364   1.211   0.273
  256EMI    H0F 4858   4.391   1.211   0.169
  256EMI    C0N 4859   4.358   1.352   0.329
  256EMI    H0O 4860   4.457   1.397   0.330
  256EMI    H0P 4861   4.295   1.417   0.270
  256EMI    H0Q 4862   4.321   1.352   0.430
  256EMI    N02 4863   4.235   1.138   0.286
  256EMI    H0E 4864   4.435   1.155   0.332
  257EMI    C01 4865   1.899   2.349   2.407
  257EMI    C04 4866   2.062   2.208   2.419
  257EMI    C03 4867   2.116   2.329   2.414
  257EMI    H07 4868   1.800   2.387   2.410
  257EMI    H09 4869   2.100   2.110   2.429
  257EMI    H08 4870   2.218   2.358   2.420
  257EMI    C05 4871   2.024   2.555   2.356
  257EMI    H0B 4872   1.937   2.608   2.393
  257EMI    H0C 4873   2.115   2.597   2.395
  257EMI    H0D 4874   2.026   2.559   2.249
  257EMI    N00 4875   2.011   2.416   2.395
  257EMI    C06 4876   1.833   2.111   2.417
  257EMI    H0F 4877   1.859   2.038   2.342
  257EMI    C0N 4878   1.842   2.056   2.556
  257EMI    H0O 4879   1.791   1.961   2.566
  257EMI    H0P 4880   1.944   2.044   2.586
  257EMI    H0Q 4881   1.796   2.127   2.624
  257EMI    N02 4882   1.927   2.221   2.408
  257EMI    H0E 4883   1.735   2.147   2.394
  258EMI    C01 4884   2.687   1.061   3.943
  258EMI    C04 4885   2.873   0.979   4.021
  258EMI    C03 4886   2.773   0.921   4.086
  258EMI    H07 4887   2.619   1.120   3.886
  258EMI    H09 4888   2.977   0.968   4.035
  258EMI    H08 4889   2.780   0.851   4.167
  258EMI    C05 4890   2.525   0.959   4.097
  258EMI    H0B 4891   2.451   0.992   4.026
  258EMI    H0C 4892   2.511   0.855   4.123
  258EMI    H0D 4893   2.520   1.020   4.185
  258EMI    N00 4894   2.657   0.978   4.040
  258EMI    C06 4895   2.891   1.139   3.827
  258EMI    H0F 4896   2.869   1.243   3.840
  258EMI    C0N 4897   3.041   1.116   3.835
  258EMI    H0O 4898   3.093   1.175   3.761
  258EMI    H0P 4899   3.080   1.144   3.932
  258EMI    H0Q 4900   3.062   1.011   3.817
  258EMI    N02 4901   2.817   1.063   3.928
  258EMI    H0E 4902   2.856   1.100   3.735
  259EMI    C01 4903   3.958   1.486   1.249
  259EMI    C04 4904   3.786   1.614   1.282
  259EMI    C03 4905   3.777   1.562   1.160
  259EMI    H07 4906   4.048   1.429   1.262
  259EMI    H09 4907   3.718   1.679   1.330
  259EMI    H08 4908   3.700   1.572   1.086
  259EMI    C05 4909   3.927   1.427   1.008
  259EMI    H0B 4910   4.000   1.348   1.019
  259EMI    H0C 4911   3.841   1.388   0.957
  259EMI    H0D 4912   3.973   1.502   0.945
  259EMI    N00 4913   3.890   1.487   1.137
  259EMI    C06 4914   3.968   1.623   1.459
  259EMI    H0F 4915   4.043   1.693   1.430
  259EMI    C0N 4916   3.873   1.695   1.553
  259EMI    H0O 4917   3.927   1.736   1.636
  259EMI    H0P 4918   3.819   1.776   1.506
  259EMI    H0Q 4919   3.800   1.626   1.592
  259EMI    N02 4920   3.907   1.573   1.333
  259EMI    H0E 4921   4.010   1.539   1.512
  260EMI    C01 4922   3.611   0.199   1.184
  260EMI    C04 4923   3.425   0.103   1.238
  260EMI    C03 4924   3.423   0.124   1.106
  260EMI    H07 4925   3.708   0.241   1.193
  260EMI    H09 4926   3.358   0.051   1.301
  260EMI    H08 4927   3.351   0.095   1.034
  260EMI    C05 4928   3.573   0.254   0.946
  260EMI    H0B 4929   3.631   0.185   0.887
  260EMI    H0C 4930   3.482   0.283   0.894
  260EMI    H0D 4931   3.631   0.343   0.965
  260EMI    N00 4932   3.538   0.194   1.075
  260EMI    C06 4933   3.582   0.167   1.429
  260EMI    H0F 4934   3.558   0.266   1.466
  260EMI    C0N 4935   3.516   0.063   1.515
  260EMI    H0O 4936   3.559   0.065   1.614
  260EMI    H0P 4937   3.411   0.087   1.523
  260EMI    H0Q 4938   3.529   5.009   1.474
  260EMI    N02 4939   3.540   0.160   1.287
  260EMI    H0E 4940   3.689   0.151   1.431
  261EMI    C01 4941   4.539   4.262   0.979
  261EMI    C04 4942   4.636   4.269   0.785
  261EMI    C03 4943   4.724   4.221   0.873
  261EMI    H07 4944   4.464   4.265   1.055
  261EMI    H09 4945   4.646   4.281   0.680
  261EMI    H08 4946   4.824   4.185   0.857
  261EMI    C05 4947   4.722   4.170   1.121
  261EMI    H0B 4948   4.654   4.186   1.203
  261EMI    H0C 4949   4.744   4.065   1.112
  261EMI    H0D 4950   4.814   4.223   1.140
  261EMI    N00 4951   4.662   4.219   0.996
  261EMI    C06 4952   4.390   4.334   0.793
  261EMI    H0F 4953   4.379   4.439   0.808
  261EMI    C0N 4954   4.378   4.298   0.645
  261EMI    H0O 4955   4.277   4.316   0.611
  261EMI    H0P 4956   4.444   4.358   0.584
  261EMI    H0Q 4957   4.400   4.193   0.628
  261EMI    N02 4958   4.519   4.294   0.853
  261EMI    H0E 4959   4.313   4.279   0.845
  262EMI    C01 4960   2.819   4.830   2.626
  262EMI    C04 4961   2.760   4.908   2.432
  262EMI    C03 4962   2.739   5.003   2.523
  262EMI    H07 4963   2.854   4.765   2.703
  262EMI    H09 4964   2.744   4.914   2.327
  262EMI    H08 4965   2.701   0.057   2.508
  262EMI    C05 4966   2.767   5.025   2.770
  262EMI    H0B 4967   2.832   4.976   2.841
  262EMI    H0C 4968   2.795   0.083   2.755
  262EMI    H0D 4969   2.665   5.023   2.803
  262EMI    N00 4970   2.776   4.953   2.644
  262EMI    C06 4971   2.855   4.674   2.434
  262EMI    H0F 4972   2.765   4.623   2.407
  262EMI    C0N 4973   2.947   4.695   2.314
  262EMI    H0O 4974   2.942   4.610   2.249
  262EMI    H0P 4975   2.918   4.782   2.256
  262EMI    H0Q 4976   3.049   4.709   2.346
  262EMI    N02 4977   2.812   4.799   2.498
  262EMI    H0E 4978   2.908   4.615   2.507
  263EMI    C01 4979   4.570   4.278   1.966
  263EMI    C04 4980   4.557   4.168   1.780
  263EMI    C03 4981   4.495   4.096   1.873
  263EMI    H07 4982   4.591   4.356   2.036
  263EMI    H09 4983   4.571   4.146   1.677
  263EMI    H08 4984   4.445   4.003   1.860
  263EMI    C05 4985   4.440   4.130   2.118
  263EMI    H0B 4986   4.412   4.220   2.170
  263EMI    H0C 4987   4.349   4.075   2.097
  263EMI    H0D 4988   4.509   4.073   2.178
  263EMI    N00 4989   4.502   4.168   1.991
  263EMI    C06 4990   4.654   4.400   1.764
  263EMI    H0F 4991   4.762   4.401   1.769
  263EMI    C0N 4992   4.607   4.398   1.619
  263EMI    H0O 4993   4.633   4.491   1.570
  263EMI    H0P 4994   4.655   4.319   1.563
  263EMI    H0Q 4995   4.500   4.386   1.613
  263EMI    N02 4996   4.602   4.284   1.838
  263EMI    H0E 4997   4.610   4.489   1.809
  264EMI    C01 4998   4.635   0.763   1.530
  264EMI    C04 4999   4.632   0.623   1.696
  264EMI    C03 5000   4.742   0.599   1.625
  264EMI    H07 5001   4.606   0.838   1.459
  264EMI    H09 5002   4.592   0.571   1.780
  264EMI    H08 5003   4.815   0.522   1.639
  264EMI    C05 5004   4.831   0.680   1.402
  264EMI    H0B 5005   4.795   0.749   1.326
  264EMI    H0C 5006   4.931   0.707   1.431
  264EMI    H0D 5007   4.829   0.580   1.360
  264EMI    N00 5008   4.740   0.685   1.517
  264EMI    C06 5009   4.423   0.760   1.661
  264EMI    H0F 5010   4.362   0.691   1.606
  264EMI    C0N 5011   4.391   0.753   1.810
  264EMI    H0O 5012   4.297   0.803   1.831
  264EMI    H0P 5013   4.379   0.650   1.841
  264EMI    H0Q 5014   4.469   0.799   1.868
  264EMI    N02 5015   4.561   0.720   1.629
  264EMI    H0E 5016   4.408   0.859   1.624
  265EMI    C01 5017   2.586   2.547   0.016
  265EMI    C04 5018   2.558   2.739   4.965
  265EMI    C03 5019   2.437   2.689   4.990
  265EMI    H07 5020   2.634   2.462   0.061
  265EMI    H09 5021   2.585   2.830   4.915
  265EMI    H08 5022   2.342   2.731   4.965
  265EMI    C05 5023   2.349   2.476   0.056
  265EMI    H0B 5024   2.395   2.386   0.094
  265EMI    H0C 5025   2.296   2.521   0.137
  265EMI    H0D 5026   2.277   2.450   5.026
  265EMI    N00 5027   2.456   2.566   0.006
  265EMI    C06 5028   2.799   2.665   5.005
  265EMI    H0F 5029   2.832   2.658   4.902
  265EMI    C0N 5030   2.845   2.795   0.023
  265EMI    H0O 5031   2.949   2.813   5.043
  265EMI    H0P 5032   2.788   2.880   5.033
  265EMI    H0Q 5033   2.839   2.789   0.131
  265EMI    N02 5034   2.652   2.648   5.009
  265EMI    H0E 5035   2.845   2.583   0.011
  266EMI    C01 5036   4.579   2.958   1.845
  266EMI    C04 5037   4.380   2.874   1.855
  266EMI    C03 5038   4.449   2.826   1.959
  266EMI    H07 5039   4.661   3.023   1.820
  266EMI    H09 5040   4.278   2.864   1.831
  266EMI    H08 5041   4.418   2.769   2.044
  266EMI    C05 5042   4.681   2.866   2.052
  266EMI    H0B 5043   4.761   2.936   2.030
  266EMI    H0C 5044   4.646   2.892   2.151
  266EMI    H0D 5045   4.724   2.767   2.053
  266EMI    N00 5046   4.576   2.880   1.952
  266EMI    C06 5047   4.423   3.046   1.673
  266EMI    H0F 5048   4.469   3.018   1.580
  266EMI    C0N 5049   4.273   3.046   1.647
  266EMI    H0O 5050   4.249   3.136   1.594
  266EMI    H0P 5051   4.246   2.965   1.582
  266EMI    H0Q 5052   4.213   3.044   1.736
  266EMI    N02 5053   4.464   2.957   1.783
  266EMI    H0E 5054   4.454   3.145   1.702
  267EMI    C01 5055   0.306   0.623   3.442
  267EMI    C04 5056   0.158   0.753   3.535
  267EMI    C03 5057   0.157   0.637   3.600
  267EMI    H07 5058   0.380   0.584   3.374
  267EMI    H09 5059   0.100   0.840   3.554
  267EMI    H08 5060   0.098   0.608   3.686
  267EMI    C05 5061   0.270   0.411   3.568
  267EMI    H0B 5062   0.375   0.388   3.562
  267EMI    H0C 5063   0.234   0.390   3.668
  267EMI    H0D 5064   0.215   0.349   3.498
  267EMI    N00 5065   0.248   0.553   3.538
  267EMI    C06 5066   0.288   0.849   3.337
  267EMI    H0F 5067   0.217   0.844   3.255
  267EMI    C0N 5068   0.293   0.987   3.400
  267EMI    H0O 5069   0.301   1.063   3.323
  267EMI    H0P 5070   0.203   1.010   3.455
  267EMI    H0Q 5071   0.376   0.997   3.468
  267EMI    N02 5072   0.252   0.743   3.434
  267EMI    H0E 5073   0.386   0.827   3.298
  268EMI    C01 5074   2.286   2.489   2.106
  268EMI    C04 5075   2.387   2.560   2.285
  268EMI    C03 5076   2.414   2.430   2.272
  268EMI    H07 5077   2.232   2.487   2.013
  268EMI    H09 5078   2.422   2.631   2.357
  268EMI    H08 5079   2.474   2.366   2.331
  268EMI    C05 5080   2.341   2.248   2.113
  268EMI    H0B 5081   2.296   2.247   2.016
  268EMI    H0C 5082   2.438   2.203   2.105
  268EMI    H0D 5083   2.278   2.191   2.178
  268EMI    N00 5084   2.346   2.386   2.161
  268EMI    C06 5085   2.244   2.728   2.159
  268EMI    H0F 5086   2.139   2.733   2.179
  268EMI    C0N 5087   2.314   2.836   2.240
  268EMI    H0O 5088   2.280   2.934   2.208
  268EMI    H0P 5089   2.290   2.827   2.345
  268EMI    H0Q 5090   2.421   2.833   2.229
  268EMI    N02 5091   2.299   2.594   2.184
  268EMI    H0E 5092   2.262   2.744   2.054
  269EMI    C01 5093   2.618   4.583   3.545
  269EMI    C04 5094   2.792   4.552   3.418
  269EMI    C03 5095   2.723   4.438   3.420
  269EMI    H07 5096   2.554   4.626   3.619
  269EMI    H09 5097   2.888   4.573   3.376
  269EMI    H08 5098   2.748   4.343   3.379
  269EMI    C05 5099   2.518   4.355   3.542
  269EMI    H0B 5100   2.423   4.402   3.557
  269EMI    H0C 5101   2.512   4.278   3.466
  269EMI    H0D 5102   2.553   4.310   3.634
  269EMI    N00 5103   2.615   4.458   3.503
  269EMI    C06 5104   2.786   4.768   3.551
  269EMI    H0F 5105   2.819   4.756   3.653
  269EMI    C0N 5106   2.906   4.805   3.467
  269EMI    H0O 5107   2.940   4.904   3.490
  269EMI    H0P 5108   2.989   4.738   3.487
  269EMI    H0Q 5109   2.883   4.797   3.363
  269EMI    N02 5110   2.729   4.640   3.503
  269EMI    H0E 5111   2.712   4.846   3.546
  270EMI    C01 5112   4.119   1.999   2.296
  270EMI    C04 5113   3.973   2.146   2.233
  270EMI    C03 5114   4.094   2.196   2.209
  270EMI    H07 5115   4.164   1.912   2.340
  270EMI    H09 5116   3.877   2.189   2.217
  270EMI    H08 5117   4.121   2.292   2.169
  270EMI    C05 5118   4.333   2.115   2.248
  270EMI    H0B 5119   4.379   2.021   2.276
  270EMI    H0C 5120   4.367   2.142   2.149
  270EMI    H0D 5121   4.366   2.190   2.319
  270EMI    N00 5122   4.186   2.102   2.251
  270EMI    C06 5123   3.880   1.933   2.332
  270EMI    H0F 5124   3.829   1.977   2.416
  270EMI    C0N 5125   3.787   1.897   2.218
  270EMI    H0O 5126   3.714   1.825   2.253
  270EMI    H0P 5127   3.733   1.984   2.181
  270EMI    H0Q 5128   3.841   1.851   2.136
  270EMI    N02 5129   3.990   2.022   2.290
  270EMI    H0E 5130   3.925   1.843   2.370
  271EMI    C01 5131   1.125   1.169   1.117
  271EMI    C04 5132   1.221   1.323   1.235
  271EMI    C03 5133   1.089   1.340   1.246
  271EMI    H07 5134   1.112   1.087   1.049
  271EMI    H09 5135   1.300   1.379   1.280
  271EMI    H08 5136   1.037   1.414   1.303
  271EMI    C05 5137   0.889   1.248   1.120
  271EMI    H0B 5138   0.878   1.177   1.040
  271EMI    H0C 5139   0.826   1.224   1.204
  271EMI    H0D 5140   0.866   1.346   1.082
  271EMI    N00 5141   1.031   1.249   1.161
  271EMI    C06 5142   1.374   1.170   1.099
  271EMI    H0F 5143   1.430   1.254   1.060
  271EMI    C0N 5144   1.449   1.087   1.202
  271EMI    H0O 5145   1.541   1.049   1.159
  271EMI    H0P 5146   1.475   1.146   1.288
  271EMI    H0Q 5147   1.389   1.004   1.235
  271EMI    N02 5148   1.243   1.217   1.150
  271EMI    H0E 5149   1.355   1.114   1.009
  272EMI    C01 5150   2.547   2.931   3.480
  272EMI    C04 5151   2.630   2.732   3.451
  272EMI    C03 5152   2.692   2.787   3.555
  272EMI    H07 5153   2.481   3.015   3.474
  272EMI    H09 5154   2.633   2.631   3.415
  272EMI    H08 5155   2.757   2.740   3.625
  272EMI    C05 5156   2.679   3.007   3.678
  272EMI    H0B 5157   2.588   3.047   3.721
  272EMI    H0C 5158   2.732   2.953   3.755
  272EMI    H0D 5159   2.741   3.086   3.640
  272EMI    N00 5160   2.640   2.913   3.572
  272EMI    C06 5161   2.462   2.810   3.277
  272EMI    H0F 5162   2.524   2.829   3.191
  272EMI    C0N 5163   2.394   2.675   3.269
  272EMI    H0O 5164   2.369   2.650   3.167
  272EMI    H0P 5165   2.453   2.594   3.308
  272EMI    H0Q 5166   2.303   2.679   3.327
  272EMI    N02 5167   2.544   2.827   3.399
  272EMI    H0E 5168   2.384   2.885   3.281
  273EMI    C01 5169   3.720   2.813   2.284
  273EMI    C04 5170   3.612   2.714   2.444
  273EMI    C03 5171   3.602   2.846   2.463
  273EMI    H07 5172   3.785   2.833   2.201
  273EMI    H09 5173   3.586   2.636   2.511
  273EMI    H08 5174   3.566   2.901   2.547
  273EMI    C05 5175   3.707   3.047   2.350
  273EMI    H0B 5176   3.735   3.069   2.249
  273EMI    H0C 5177   3.625   3.110   2.379
  273EMI    H0D 5178   3.793   3.067   2.413
  273EMI    N00 5179   3.673   2.906   2.361
  273EMI    C06 5180   3.749   2.566   2.287
  273EMI    H0F 5181   3.852   2.566   2.315
  273EMI    C0N 5182   3.687   2.444   2.351
  273EMI    H0O 5183   3.727   2.357   2.300
  273EMI    H0P 5184   3.715   2.440   2.455
  273EMI    H0Q 5185   3.579   2.442   2.346
  273EMI    N02 5186   3.692   2.695   2.333
  273EMI    H0E 5187   3.742   2.564   2.180
  274EMI    C01 5188   0.902   3.306   1.305
  274EMI    C04 5189   0.760   3.468   1.296
  274EMI    C03 5190   0.694   3.357   1.325
  274EMI    H07 5191   0.991   3.248   1.304
  274EMI    H09 5192   0.724   3.567   1.285
  274EMI    H08 5193   0.591   3.337   1.345
  274EMI    C05 5194   0.754   3.119   1.376
  274EMI    H0B 5195   0.841   3.071   1.416
  274EMI    H0C 5196   0.677   3.125   1.451
  274EMI    H0D 5197   0.711   3.063   1.295
  274EMI    N00 5198   0.785   3.256   1.335
  274EMI    C06 5199   1.003   3.525   1.239
  274EMI    H0F 5200   1.005   3.532   1.131
  274EMI    C0N 5201   1.000   3.662   1.306
  274EMI    H0O 5202   1.084   3.722   1.272
  274EMI    H0P 5203   0.910   3.716   1.282
  274EMI    H0Q 5204   1.006   3.654   1.413
  274EMI    N02 5205   0.892   3.434   1.277
  274EMI    H0E 5206   1.093   3.477   1.275
  275EMI    C01 5207   4.406   3.521   2.515
  275EMI    C04 5208   4.522   3.423   2.359
  275EMI    C03 5209   4.420   3.484   2.301
  275EMI    H07 5210   4.374   3.553   2.612
  275EMI    H09 5211   4.599   3.361   2.315
  275EMI    H08 5212   4.394   3.486   2.198
  275EMI    C05 5213   4.211   3.598   2.379
  275EMI    H0B 5214   4.222   3.705   2.383
  275EMI    H0C 5215   4.177   3.569   2.281
  275EMI    H0D 5216   4.142   3.561   2.452
  275EMI    N00 5217   4.342   3.537   2.401
  275EMI    C06 5218   4.619   3.415   2.592
  275EMI    H0F 5219   4.585   3.334   2.654
  275EMI    C0N 5220   4.747   3.374   2.526
  275EMI    H0O 5221   4.830   3.377   2.595
  275EMI    H0P 5222   4.739   3.272   2.490
  275EMI    H0Q 5223   4.772   3.439   2.443
  275EMI    N02 5224   4.515   3.449   2.494
  275EMI    H0E 5225   4.643   3.503   2.648
  276EMI    C01 5226   3.000   2.886   1.160
  276EMI    C04 5227   2.989   2.748   0.992
  276EMI    C03 5228   3.045   2.686   1.095
  276EMI    H07 5229   2.995   2.976   1.218
  276EMI    H09 5230   2.975   2.710   0.893
  276EMI    H08 5231   3.088   2.589   1.100
  276EMI    C05 5232   3.101   2.735   1.333
  276EMI    H0B 5233   3.027   2.746   1.410
  276EMI    H0C 5234   3.135   2.633   1.332
  276EMI    H0D 5235   3.187   2.795   1.353
  276EMI    N00 5236   3.047   2.771   1.201
  276EMI    C06 5237   2.935   2.990   0.941
  276EMI    H0F 5238   3.012   3.065   0.949
  276EMI    C0N 5239   2.932   2.944   0.796
  276EMI    H0O 5240   2.911   3.026   0.730
  276EMI    H0P 5241   3.028   2.903   0.765
  276EMI    H0Q 5242   2.856   2.869   0.779
  276EMI    N02 5243   2.969   2.878   1.032
  276EMI    H0E 5244   2.838   3.029   0.967
  277EMI    C01 5245   4.934   0.350   3.351
  277EMI    C04 5246   0.037   0.289   3.203
  277EMI    C03 5247   5.020   0.179   3.248
  277EMI    H07 5248   4.867   0.409   3.411
  277EMI    H09 5249   0.107   0.296   3.123
  277EMI    H08 5250   5.028   0.079   3.211
  277EMI    C05 5251   4.841   0.130   3.420
  277EMI    H0B 5252   4.787   0.185   3.496
  277EMI    H0C 5253   4.769   0.089   3.352
  277EMI    H0D 5254   4.897   0.050   3.466
  277EMI    N00 5255   4.930   0.218   3.345
  277EMI    C06 5256   0.010   0.539   3.241
  277EMI    H0F 5257   0.094   0.569   3.301
  277EMI    C0N 5258   0.038   0.566   3.094
  277EMI    H0O 5259   0.039   0.671   3.072
  277EMI    H0P 5260   0.134   0.525   3.064
  277EMI    H0Q 5261   5.008   0.519   3.031
  277EMI    N02 5262   5.027   0.396   3.270
  277EMI    H0E 5263   4.967   0.595   3.270
  278EMI    C01 5264   0.574   2.259   3.744
  278EMI    C04 5265   0.753   2.368   3.689
  278EMI    C03 5266   0.668   2.372   3.585
  278EMI    H07 5267   0.503   2.203   3.801
  278EMI    H09 5268   0.847   2.418   3.699
  278EMI    H08 5269   0.678   2.425   3.493
  278EMI    C05 5270   0.432   2.285   3.542
  278EMI    H0B 5271   0.347   2.318   3.600
  278EMI    H0C 5272   0.438   2.344   3.452
  278EMI    H0D 5273   0.420   2.180   3.520
  278EMI    N00 5274   0.554   2.304   3.623
  278EMI    C06 5275   0.742   2.277   3.926
  278EMI    H0F 5276   0.803   2.188   3.928
  278EMI    C0N 5277   0.817   2.396   3.982
  278EMI    H0O 5278   0.847   2.379   4.085
  278EMI    H0P 5279   0.907   2.417   3.926
  278EMI    H0Q 5280   0.754   2.484   3.980
  278EMI    N02 5281   0.692   2.296   3.789
  278EMI    H0E 5282   0.653   2.267   3.986
  279EMI    C01 5283   4.265   3.663   0.627
  279EMI    C04 5284   4.354   3.849   0.691
  279EMI    C03 5285   4.244   3.829   0.762
  279EMI    H07 5286   4.250   3.571   0.576
  279EMI    H09 5287   4.427   3.928   0.703
  279EMI    H08 5288   4.207   3.887   0.844
  279EMI    C05 5289   4.045   3.676   0.743
  279EMI    H0B 5290   4.032   3.575   0.710
  279EMI    H0C 5291   4.027   3.684   0.849
  279EMI    H0D 5292   3.977   3.741   0.690
  279EMI    N00 5293   4.182   3.718   0.713
  279EMI    C06 5294   4.470   3.726   0.501
  279EMI    H0F 5295   4.424   3.728   0.403
  279EMI    C0N 5296   4.571   3.836   0.508
  279EMI    H0O 5297   4.653   3.820   0.438
  279EMI    H0P 5298   4.526   3.932   0.486
  279EMI    H0Q 5299   4.616   3.842   0.607
  279EMI    N02 5300   4.365   3.744   0.603
  279EMI    H0E 5301   4.521   3.634   0.523
  280EMI    C01 5302   3.791   3.842   0.190
  280EMI    C04 5303   3.749   3.886   0.399
  280EMI    C03 5304   3.652   3.807   0.354
  280EMI    H07 5305   3.841   3.835   0.096
  280EMI    H09 5306   3.765   3.926   0.496
  280EMI    H08 5307   3.569   3.764   0.405
  280EMI    C05 5308   3.606   3.683   0.140
  280EMI    H0B 5309   3.663   3.660   0.052
  280EMI    H0C 5310   3.593   3.591   0.195
  280EMI    H0D 5311   3.510   3.724   0.113
  280EMI    N00 5312   3.680   3.778   0.222
  280EMI    C06 5313   3.965   3.979   0.306
  280EMI    H0F 5314   3.952   4.086   0.300
  280EMI    C0N 5315   4.033   3.938   0.436
  280EMI    H0O 5316   4.138   3.962   0.437
  280EMI    H0P 5317   3.988   3.990   0.518
  280EMI    H0Q 5318   4.023   3.832   0.454
  280EMI    N02 5319   3.835   3.911   0.294
  280EMI    H0E 5320   4.027   3.944   0.224
  281EMI    C01 5321   0.991   4.378   1.875
  281EMI    C04 5322   1.091   4.294   2.049
  281EMI    C03 5323   1.118   4.217   1.944
  281EMI    H07 5324   0.929   4.442   1.816
  281EMI    H09 5325   1.115   4.279   2.152
  281EMI    H08 5326   1.169   4.125   1.941
  281EMI    C05 5327   1.036   4.197   1.710
  281EMI    H0B 5328   0.993   4.261   1.636
  281EMI    H0C 5329   1.134   4.166   1.677
  281EMI    H0D 5330   0.972   4.112   1.727
  281EMI    N00 5331   1.050   4.268   1.836
  281EMI    C06 5332   0.959   4.506   2.086
  281EMI    H0F 5333   0.852   4.498   2.086
  281EMI    C0N 5334   1.008   4.503   2.229
  281EMI    H0O 5335   0.987   4.597   2.278
  281EMI    H0P 5336   0.959   4.425   2.285
  281EMI    H0Q 5337   1.115   4.489   2.232
  281EMI    N02 5338   1.012   4.397   2.004
  281EMI    H0E 5339   0.995   4.595   2.038
  282EMI    C01 5340   2.283   1.232   2.949
  282EMI    C04 5341   2.308   1.439   2.893
  282EMI    C03 5342   2.425   1.378   2.874
  282EMI    H07 5343   2.239   1.143   2.988
  282EMI    H09 5344   2.283   1.541   2.881
  282EMI    H08 5345   2.519   1.416   2.842
  282EMI    C05 5346   2.505   1.137   2.891
  282EMI    H0B 5347   2.455   1.042   2.892
  282EMI    H0C 5348   2.559   1.151   2.799
  282EMI    H0D 5349   2.575   1.146   2.972
  282EMI    N00 5350   2.406   1.245   2.903
  282EMI    C06 5351   2.071   1.357   2.933
  282EMI    H0F 5352   2.039   1.363   3.035
  282EMI    C0N 5353   2.022   1.475   2.851
  282EMI    H0O 5354   1.914   1.477   2.849
  282EMI    H0P 5355   2.056   1.568   2.894
  282EMI    H0Q 5356   2.057   1.468   2.749
  282EMI    N02 5357   2.218   1.343   2.931
  282EMI    H0E 5358   2.033   1.267   2.886
  283EMI    C01 5359   2.398   4.058   0.950
  283EMI    C04 5360   2.312   4.257   0.924
  283EMI    C03 5361   2.215   4.175   0.964
  283EMI    H07 5362   2.469   3.978   0.958
  283EMI    H09 5363   2.309   4.362   0.905
  283EMI    H08 5364   2.112   4.197   0.985
  283EMI    C05 5365   2.204   3.933   1.038
  283EMI    H0B 5366   2.275   3.868   1.087
  283EMI    H0C 5367   2.130   3.965   1.109
  283EMI    H0D 5368   2.155   3.877   0.960
  283EMI    N00 5369   2.271   4.050   0.981
  283EMI    C06 5370   2.561   4.237   0.898
  283EMI    H0F 5371   2.576   4.262   0.794
  283EMI    C0N 5372   2.584   4.355   0.991
  283EMI    H0O 5373   2.690   4.375   1.002
  283EMI    H0P 5374   2.536   4.445   0.955
  283EMI    H0Q 5375   2.545   4.332   1.089
  283EMI    N02 5376   2.427   4.182   0.916
  283EMI    H0E 5377   2.630   4.158   0.925
  284EMI    C01 5378   1.789   2.468   0.647
  284EMI    C04 5379   1.597   2.431   0.555
  284EMI    C03 5380   1.657   2.527   0.485
  284EMI    H07 5381   1.875   2.455   0.709
  284EMI    H09 5382   1.506   2.379   0.534
  284EMI    H08 5383   1.624   2.572   0.394
  284EMI    C05 5384   1.900   2.603   0.475
  284EMI    H0B 5385   1.986   2.541   0.500
  284EMI    H0C 5386   1.890   2.605   0.368
  284EMI    H0D 5387   1.916   2.702   0.514
  284EMI    N00 5388   1.784   2.539   0.537
  284EMI    C06 5389   1.657   2.299   0.767
  284EMI    H0F 5390   1.621   2.348   0.856
  284EMI    C0N 5391   1.559   2.191   0.732
  284EMI    H0O 5392   1.522   2.150   0.824
  284EMI    H0P 5393   1.476   2.225   0.674
  284EMI    H0Q 5394   1.605   2.110   0.678
  284EMI    N02 5395   1.679   2.399   0.661
  284EMI    H0E 5396   1.751   2.250   0.785
  285EMI    C01 5397   1.998   3.840   1.990
  285EMI    C04 5398   1.980   4.056   2.013
  285EMI    C03 5399   2.088   4.016   2.079
  285EMI    H07 5400   1.978   3.738   1.964
  285EMI    H09 5401   1.939   4.154   2.004
  285EMI    H08 5402   2.161   4.070   2.135
  285EMI    C05 5403   2.217   3.802   2.099
  285EMI    H0B 5404   2.236   3.718   2.033
  285EMI    H0C 5405   2.306   3.862   2.105
  285EMI    H0D 5406   2.196   3.768   2.199
  285EMI    N00 5407   2.103   3.881   2.056
  285EMI    C06 5408   1.831   3.943   1.842
  285EMI    H0F 5409   1.732   3.918   1.878
  285EMI    C0N 5410   1.832   4.072   1.763
  285EMI    H0O 5411   1.750   4.071   1.693
  285EMI    H0P 5412   1.818   4.159   1.825
  285EMI    H0Q 5413   1.925   4.084   1.709
  285EMI    N02 5414   1.927   3.944   1.953
  285EMI    H0E 5415   1.869   3.869   1.775
  286EMI    C01 5416   0.337   2.429   0.508
  286EMI    C04 5417   0.490   2.566   0.577
  286EMI    C03 5418   0.551   2.457   0.529
  286EMI    H07 5419   0.242   2.386   0.485
  286EMI    H09 5420   0.529   2.657   0.615
  286EMI    H08 5421   0.653   2.432   0.518
  286EMI    C05 5422   0.479   2.237   0.436
  286EMI    H0B 5423   0.385   2.187   0.418
  286EMI    H0C 5424   0.536   2.248   0.345
  286EMI    H0D 5425   0.537   2.179   0.506
  286EMI    N00 5426   0.453   2.370   0.490
  286EMI    C06 5427   0.252   2.628   0.634
  286EMI    H0F 5428   0.254   2.617   0.742
  286EMI    C0N 5429   0.267   2.772   0.589
  286EMI    H0O 5430   0.185   2.831   0.627
  286EMI    H0P 5431   0.359   2.816   0.626
  286EMI    H0Q 5432   0.267   2.779   0.481
  286EMI    N02 5433   0.355   2.540   0.576
  286EMI    H0E 5434   0.158   2.588   0.600
  287EMI    C01 5435   0.712   0.472   3.985
  287EMI    C04 5436   0.600   0.382   3.821
  287EMI    C03 5437   0.670   0.484   3.772
  287EMI    H07 5438   0.747   0.497   4.082
  287EMI    H09 5439   0.527   0.320   3.774
  287EMI    H08 5440   0.669   0.526   3.675
  287EMI    C05 5441   0.849   0.636   3.866
  287EMI    H0B 5442   0.942   0.591   3.896
  287EMI    H0C 5443   0.856   0.670   3.764
  287EMI    H0D 5444   0.828   0.719   3.930
  287EMI    N00 5445   0.746   0.534   3.875
  287EMI    C06 5446   0.560   0.293   4.055
  287EMI    H0F 5447   0.532   0.356   4.138
  287EMI    C0N 5448   0.434   0.229   4.001
  287EMI    H0O 5449   0.398   0.158   4.074
  287EMI    H0P 5450   0.356   0.302   3.981
  287EMI    H0Q 5451   0.451   0.171   3.911
  287EMI    N02 5452   0.627   0.376   3.956
  287EMI    H0E 5453   0.629   0.216   4.085
  288EMI    C01 5454   3.137   1.189   1.024
  288EMI    C04 5455   3.189   1.398   1.040
  288EMI    C03 5456   3.281   1.338   0.964
  288EMI    H07 5457   3.082   1.098   1.028
  288EMI    H09 5458   3.183   1.500   1.069
  288EMI    H08 5459   3.369   1.377   0.919
  288EMI    C05 5460   3.314   1.096   0.884
  288EMI    H0B 5461   3.243   1.024   0.848
  288EMI    H0C 5462   3.371   1.135   0.803
  288EMI    H0D 5463   3.383   1.049   0.951
  288EMI    N00 5464   3.246   1.205   0.955
  288EMI    C06 5465   2.969   1.316   1.149
  288EMI    H0F 5466   2.983   1.273   1.246
  288EMI    C0N 5467   2.912   1.454   1.167
  288EMI    H0O 5468   2.842   1.456   1.249
  288EMI    H0P 5469   2.989   1.525   1.189
  288EMI    H0Q 5470   2.859   1.484   1.077
  288EMI    N02 5471   3.096   1.302   1.074
  288EMI    H0E 5472   2.895   1.264   1.090
  289EMI    C01 5473   1.564   3.885   1.485
  289EMI    C04 5474   1.679   3.801   1.320
  289EMI    C03 5475   1.563   3.737   1.328
  289EMI    H07 5476   1.534   3.945   1.568
  289EMI    H09 5477   1.757   3.786   1.248
  289EMI    H08 5478   1.529   3.657   1.267
  289EMI    C05 5479   1.357   3.746   1.475
  289EMI    H0B 5480   1.318   3.812   1.552
  289EMI    H0C 5481   1.290   3.747   1.391
  289EMI    H0D 5482   1.362   3.645   1.514
  289EMI    N00 5483   1.491   3.789   1.432
  289EMI    C06 5484   1.784   3.994   1.441
  289EMI    H0F 5485   1.860   3.956   1.508
  289EMI    C0N 5486   1.843   4.031   1.308
  289EMI    H0O 5487   1.899   4.122   1.312
  289EMI    H0P 5488   1.908   3.953   1.269
  289EMI    H0Q 5489   1.763   4.049   1.239
  289EMI    N02 5490   1.679   3.894   1.421
  289EMI    H0E 5491   1.737   4.084   1.477
  290EMI    C01 5492   3.261   2.066   1.846
  290EMI    C04 5493   3.101   2.120   1.710
  290EMI    C03 5494   3.085   2.189   1.822
  290EMI    H07 5495   3.348   2.018   1.885
  290EMI    H09 5496   3.042   2.129   1.621
  290EMI    H08 5497   3.008   2.262   1.841
  290EMI    C05 5498   3.185   2.185   2.053
  290EMI    H0B 5499   3.287   2.196   2.086
  290EMI    H0C 5500   3.132   2.278   2.064
  290EMI    H0D 5501   3.135   2.110   2.111
  290EMI    N00 5502   3.181   2.148   1.911
  290EMI    C06 5503   3.278   1.954   1.625
  290EMI    H0F 5504   3.263   1.852   1.655
  290EMI    C0N 5505   3.228   1.965   1.483
  290EMI    H0O 5506   3.227   1.869   1.434
  290EMI    H0P 5507   3.128   2.003   1.478
  290EMI    H0Q 5508   3.289   2.032   1.423
  290EMI    N02 5509   3.214   2.042   1.725
  290EMI    H0E 5510   3.382   1.982   1.620
  291EMI    C01 5511   1.326   0.375   2.969
  291EMI    C04 5512   1.420   0.195   3.050
  291EMI    C03 5513   1.510   0.293   3.054
  291EMI    H07 5514   1.252   0.444   2.932
  291EMI    H09 5515   1.425   0.095   3.085
  291EMI    H08 5516   1.608   0.292   3.097
  291EMI    C05 5517   1.517   0.532   2.976
  291EMI    H0B 5518   1.456   0.609   3.021
  291EMI    H0C 5519   1.615   0.533   3.020
  291EMI    H0D 5520   1.521   0.549   2.869
  291EMI    N00 5521   1.451   0.404   2.997
  291EMI    C06 5522   1.175   0.180   2.996
  291EMI    H0F 5523   1.162   0.127   2.903
  291EMI    C0N 5524   1.157   0.090   3.118
  291EMI    H0O 5525   1.057   0.048   3.118
  291EMI    H0P 5526   1.226   0.007   3.118
  291EMI    H0Q 5527   1.169   0.147   3.209
  291EMI    N02 5528   1.304   0.248   2.996
  291EMI    H0E 5529   1.103   0.259   3.001
  292EMI    C01 5530   2.195   3.300   4.637
  292EMI    C04 5531   2.229   3.344   4.427
  292EMI    C03 5532   2.343   3.365   4.493
  292EMI    H07 5533   2.149   3.269   4.727
  292EMI    H09 5534   2.211   3.348   4.321
  292EMI    H08 5535   2.439   3.392   4.453
  292EMI    C05 5536   2.421   3.346   4.731
  292EMI    H0B 5537   2.448   3.246   4.760
  292EMI    H0C 5538   2.510   3.395   4.696
  292EMI    H0D 5539   2.386   3.402   4.816
  292EMI    N00 5540   2.321   3.339   4.625
  292EMI    C06 5541   1.998   3.258   4.492
  292EMI    H0F 5542   1.940   3.267   4.582
  292EMI    C0N 5543   1.935   3.344   4.385
  292EMI    H0O 5544   1.842   3.297   4.356
  292EMI    H0P 5545   1.916   3.446   4.413
  292EMI    H0Q 5546   1.995   3.351   4.296
  292EMI    N02 5547   2.138   3.297   4.519
  292EMI    H0E 5548   1.998   3.156   4.458
  293EMI    C01 5549   4.911   1.376   3.861
  293EMI    C04 5550   4.811   1.421   4.048
  293EMI    C03 5551   4.835   1.290   4.046
  293EMI    H07 5552   4.955   1.388   3.764
  293EMI    H09 5553   4.760   1.479   4.120
  293EMI    H08 5554   4.810   1.215   4.119
  293EMI    C05 5555   4.939   1.129   3.882
  293EMI    H0B 5556   5.036   1.134   3.835
  293EMI    H0C 5557   4.943   1.064   3.968
  293EMI    H0D 5558   4.867   1.090   3.812
  293EMI    N00 5559   4.898   1.262   3.926
  293EMI    C06 5560   4.862   1.619   3.896
  293EMI    H0F 5561   4.788   1.639   3.819
  293EMI    C0N 5562   4.831   1.706   4.017
  293EMI    H0O 5563   4.838   1.810   3.988
  293EMI    H0P 5564   4.730   1.691   4.054
  293EMI    H0Q 5565   4.902   1.689   4.097
  293EMI    N02 5566   4.860   1.475   3.931
  293EMI    H0E 5567   4.961   1.646   3.863
  294EMI    C01 5568   1.682   5.000   3.628
  294EMI    C04 5569   1.495   4.935   3.537
  294EMI    C03 5570   1.480   4.929   3.669
  294EMI    H07 5571   1.781   5.039   3.639
  294EMI    H09 5572   1.424   4.915   3.460
  294EMI    H08 5573   1.395   4.902   3.728
  294EMI    C05 5574   1.617   4.999   3.870
  294EMI    H0B 5575   1.660   0.051   3.886
  294EMI    H0C 5576   1.521   4.998   3.920
  294EMI    H0D 5577   1.680   4.923   3.913
  294EMI    N00 5578   1.597   4.976   3.726
  294EMI    C06 5579   1.681   5.013   3.379
  294EMI    H0F 5580   1.769   4.953   3.363
  294EMI    C0N 5581   1.582   4.990   3.266
  294EMI    H0O 5582   1.627   5.018   3.171
  294EMI    H0P 5583   1.550   4.887   3.259
  294EMI    H0Q 5584   1.495   0.008   3.280
  294EMI    N02 5585   1.623   4.982   3.512
  294EMI    H0E 5586   1.710   0.072   3.378
  295EMI    C01 5587   3.715   0.145   3.134
  295EMI    C04 5588   3.590   0.320   3.160
  295EMI    C03 5589   3.613   0.305   3.030
  295EMI    H07 5590   3.782   0.065   3.154
  295EMI    H09 5591   3.550   0.403   3.212
  295EMI    H08 5592   3.596   0.375   2.951
  295EMI    C05 5593   3.745   0.141   2.887
  295EMI    H0B 5594   3.718   0.038   2.871
  295EMI    H0C 5595   3.714   0.202   2.804
  295EMI    H0D 5596   3.852   0.148   2.893
  295EMI    N00 5597   3.690   0.192   3.013
  295EMI    C06 5598   3.651   0.192   3.371
  295EMI    H0F 5599   3.754   0.196   3.404
  295EMI    C0N 5600   3.572   0.296   3.447
  295EMI    H0O 5601   3.579   0.279   3.554
  295EMI    H0P 5602   3.609   0.396   3.429
  295EMI    H0Q 5603   3.469   0.290   3.419
  295EMI    N02 5604   3.648   0.213   3.224
  295EMI    H0E 5605   3.605   0.097   3.392
  296EMI    C01 5606   2.955   2.681   3.297
  296EMI    C04 5607   3.092   2.844   3.252
  296EMI    C03 5608   3.156   2.730   3.231
  296EMI    H07 5609   2.867   2.628   3.325
  296EMI    H09 5610   3.125   2.944   3.242
  296EMI    H08 5611   3.256   2.716   3.197
  296EMI    C05 5612   3.100   2.484   3.248
  296EMI    H0B 5613   3.009   2.426   3.247
  296EMI    H0C 5614   3.155   2.463   3.158
  296EMI    H0D 5615   3.159   2.448   3.330
  296EMI    N00 5616   3.069   2.627   3.260
  296EMI    C06 5617   2.858   2.911   3.314
  296EMI    H0F 5618   2.860   2.944   3.417
  296EMI    C0N 5619   2.861   3.028   3.220
  296EMI    H0O 5620   2.772   3.088   3.234
  296EMI    H0P 5621   2.948   3.090   3.237
  296EMI    H0Q 5622   2.861   2.996   3.117
  296EMI    N02 5623   2.965   2.812   3.293
  296EMI    H0E 5624   2.768   2.860   3.287
  297EMI    C01 5625   4.081   3.316   1.752
  297EMI    C04 5626   4.169   3.222   1.927
  297EMI    C03 5627   4.267   3.276   1.855
  297EMI    H07 5628   4.012   3.349   1.678
  297EMI    H09 5629   4.178   3.167   2.017
  297EMI    H08 5630   4.372   3.273   1.874
  297EMI    C05 5631   4.283   3.413   1.643
  297EMI    H0B 5632   4.218   3.452   1.566
  297EMI    H0C 5633   4.343   3.493   1.685
  297EMI    H0D 5634   4.351   3.344   1.597
  297EMI    N00 5635   4.210   3.341   1.748
  297EMI    C06 5636   3.919   3.211   1.908
  297EMI    H0F 5637   3.872   3.148   1.834
  297EMI    C0N 5638   3.922   3.138   2.041
  297EMI    H0O 5639   3.822   3.138   2.080
  297EMI    H0P 5640   3.956   3.036   2.033
  297EMI    H0Q 5641   3.982   3.189   2.115
  297EMI    N02 5642   4.053   3.248   1.861
  297EMI    H0E 5643   3.868   3.304   1.926
  298EMI    C01 5644   1.251   0.254   1.709
  298EMI    C04 5645   1.398   0.400   1.773
  298EMI    C03 5646   1.463   0.291   1.732
  298EMI    H07 5647   1.160   0.203   1.693
  298EMI    H09 5648   1.436   0.491   1.812
  298EMI    H08 5649   1.566   0.267   1.729
  298EMI    C05 5650   1.394   0.050   1.712
  298EMI    H0B 5651   1.311   5.039   1.671
  298EMI    H0C 5652   1.485   0.029   1.659
  298EMI    H0D 5653   1.408   0.015   1.813
  298EMI    N00 5654   1.368   0.194   1.710
  298EMI    C06 5655   1.157   0.475   1.781
  298EMI    H0F 5656   1.162   0.499   1.886
  298EMI    C0N 5657   1.158   0.599   1.693
  298EMI    H0O 5658   1.062   0.649   1.701
  298EMI    H0P 5659   1.234   0.669   1.724
  298EMI    H0Q 5660   1.173   0.572   1.589
  298EMI    N02 5661   1.264   0.378   1.751
  298EMI    H0E 5662   1.067   0.419   1.765
  299EMI    C01 5663   2.328   1.780   2.315
  299EMI    C04 5664   2.470   1.804   2.479
  299EMI    C03 5665   2.479   1.680   2.434
  299EMI    H07 5666   2.246   1.796   2.246
  299EMI    H09 5667   2.519   1.849   2.561
  299EMI    H08 5668   2.538   1.600   2.470
  299EMI    C05 5669   2.361   1.537   2.263
  299EMI    H0B 5670   2.293   1.551   2.181
  299EMI    H0C 5671   2.451   1.491   2.226
  299EMI    H0D 5672   2.313   1.467   2.331
  299EMI    N00 5673   2.387   1.664   2.332
  299EMI    C06 5674   2.336   2.008   2.421
  299EMI    H0F 5675   2.263   2.006   2.499
  299EMI    C0N 5676   2.445   2.107   2.461
  299EMI    H0O 5677   2.399   2.197   2.501
  299EMI    H0P 5678   2.510   2.068   2.537
  299EMI    H0Q 5679   2.503   2.136   2.375
  299EMI    N02 5680   2.376   1.868   2.402
  299EMI    H0E 5681   2.291   2.037   2.328
  300EMI    C01 5682   2.257   1.772   1.017
  300EMI    C04 5683   2.231   1.676   1.209
  300EMI    C03 5684   2.327   1.767   1.222
  300EMI    H07 5685   2.240   1.802   0.917
  300EMI    H09 5686   2.188   1.609   1.280
  300EMI    H08 5687   2.383   1.794   1.308
  300EMI    C05 5688   2.471   1.889   1.053
  300EMI    H0B 5689   2.439   1.979   1.003
  300EMI    H0C 5690   2.537   1.907   1.136
  300EMI    H0D 5691   2.524   1.828   0.980
  300EMI    N00 5692   2.352   1.816   1.096
  300EMI    C06 5693   2.078   1.603   1.022
  300EMI    H0F 5694   2.116   1.521   0.963
  300EMI    C0N 5695   1.986   1.550   1.128
  300EMI    H0O 5696   1.894   1.514   1.083
  300EMI    H0P 5697   2.030   1.468   1.183
  300EMI    H0Q 5698   1.963   1.629   1.196
  300EMI    N02 5699   2.189   1.679   1.079
  300EMI    H0E 5700   2.019   1.672   0.964
  301EMI    C01 5701   0.338   3.459   4.092
  301EMI    C04 5702   0.460   3.594   4.210
  301EMI    C03 5703   0.406   3.665   4.111
  301EMI    H07 5704   0.283   3.373   4.060
  301EMI    H09 5705   0.514   3.628   4.296
  301EMI    H08 5706   0.406   3.770   4.092
  301EMI    C05 5707   0.239   3.617   3.928
  301EMI    H0B 5708   0.171   3.536   3.904
  301EMI    H0C 5709   0.181   3.703   3.956
  301EMI    H0D 5710   0.296   3.641   3.840
  301EMI    N00 5711   0.328   3.578   4.038
  301EMI    C06 5712   0.455   3.350   4.287
  301EMI    H0F 5713   0.503   3.272   4.230
  301EMI    C0N 5714   0.547   3.392   4.401
  301EMI    H0O 5715   0.569   3.307   4.464
  301EMI    H0P 5716   0.641   3.433   4.366
  301EMI    H0Q 5717   0.498   3.465   4.465
  301EMI    N02 5718   0.420   3.463   4.196
  301EMI    H0E 5719   0.362   3.314   4.331
  302EMI    C01 5720   4.752   1.199   1.841
  302EMI    C04 5721   4.550   1.231   1.771
  302EMI    C03 5722   4.587   1.108   1.735
  302EMI    H07 5723   4.844   1.208   1.894
  302EMI    H09 5724   4.457   1.278   1.755
  302EMI    H08 5725   4.532   1.036   1.678
  302EMI    C05 5726   4.791   0.963   1.769
  302EMI    H0B 5727   4.889   0.975   1.812
  302EMI    H0C 5728   4.737   0.884   1.818
  302EMI    H0D 5729   4.802   0.939   1.664
  302EMI    N00 5730   4.715   1.088   1.780
  302EMI    C06 5731   4.651   1.419   1.908
  302EMI    H0F 5732   4.730   1.479   1.870
  302EMI    C0N 5733   4.521   1.498   1.889
  302EMI    H0O 5734   4.528   1.596   1.934
  302EMI    H0P 5735   4.498   1.511   1.784
  302EMI    H0Q 5736   4.436   1.448   1.934
  302EMI    N02 5737   4.655   1.288   1.838
  302EMI    H0E 5738   4.662   1.397   2.013
  303EMI    C01 5739   2.719   1.785   0.002
  303EMI    C04 5740   2.596   1.721   4.879
  303EMI    C03 5741   2.722   1.729   4.838
  303EMI    H07 5742   2.752   1.805   0.102
  303EMI    H09 5743   2.511   1.689   4.825
  303EMI    H08 5744   2.767   1.704   4.745
  303EMI    C05 5745   2.940   1.811   4.931
  303EMI    H0B 5746   2.971   1.875   5.012
  303EMI    H0C 5747   2.998   1.719   4.935
  303EMI    H0D 5748   2.959   1.861   4.836
  303EMI    N00 5749   2.797   1.778   4.941
  303EMI    C06 5750   2.477   1.744   0.055
  303EMI    H0F 5751   2.419   1.834   0.061
  303EMI    C0N 5752   2.387   1.639  -0.000
  303EMI    H0O 5753   2.319   1.604   0.076
  303EMI    H0P 5754   2.327   1.678   4.963
  303EMI    H0Q 5755   2.446   1.555   5.012
  303EMI    N02 5756   2.594   1.760   5.012
  303EMI    H0E 5757   2.514   1.709   0.151
  304EMI    C01 5758   4.704   3.325   3.599
  304EMI    C04 5759   4.828   3.479   3.507
  304EMI    C03 5760   4.856   3.363   3.448
  304EMI    H07 5761   4.639   3.274   3.667
  304EMI    H09 5762   4.873   3.575   3.492
  304EMI    H08 5763   4.929   3.342   3.372
  304EMI    C05 5764   4.783   3.121   3.478
  304EMI    H0B 5765   4.700   3.069   3.525
  304EMI    H0C 5766   4.781   3.104   3.371
  304EMI    H0D 5767   4.874   3.081   3.519
  304EMI    N00 5768   4.778   3.266   3.507
  304EMI    C06 5769   4.666   3.556   3.687
  304EMI    H0F 5770   4.747   3.595   3.746
  304EMI    C0N 5771   4.594   3.666   3.613
  304EMI    H0O 5772   4.557   3.741   3.682
  304EMI    H0P 5773   4.664   3.714   3.546
  304EMI    H0Q 5774   4.512   3.627   3.554
  304EMI    N02 5775   4.729   3.454   3.600
  304EMI    H0E 5776   4.602   3.504   3.755
  305EMI    C01 5777   0.978   3.625   3.596
  305EMI    C04 5778   1.169   3.582   3.689
  305EMI    C03 5779   1.104   3.665   3.770
  305EMI    H07 5780   0.894   3.623   3.528
  305EMI    H09 5781   1.264   3.535   3.698
  305EMI    H08 5782   1.131   3.705   3.865
  305EMI    C05 5783   0.899   3.807   3.747
  305EMI    H0B 5784   0.815   3.762   3.798
  305EMI    H0C 5785   0.948   3.875   3.814
  305EMI    H0D 5786   0.863   3.860   3.660
  305EMI    N00 5787   0.989   3.700   3.703
  305EMI    C06 5788   1.127   3.464   3.472
  305EMI    H0F 5789   1.177   3.516   3.393
  305EMI    C0N 5790   1.209   3.347   3.523
  305EMI    H0O 5791   1.195   3.260   3.461
  305EMI    H0P 5792   1.314   3.370   3.523
  305EMI    H0Q 5793   1.180   3.317   3.623
  305EMI    N02 5794   1.090   3.558   3.579
  305EMI    H0E 5795   1.035   3.425   3.437
  306EMI    C01 5796   2.706   2.002   0.347
  306EMI    C04 5797   2.784   2.202   0.310
  306EMI    C03 5798   2.667   2.192   0.248
  306EMI    H07 5799   2.696   1.902   0.384
  306EMI    H09 5800   2.850   2.284   0.318
  306EMI    H08 5801   2.613   2.266   0.194
  306EMI    C05 5802   2.486   2.021   0.228
  306EMI    H0B 5803   2.468   1.921   0.264
  306EMI    H0C 5804   2.409   2.086   0.266
  306EMI    H0D 5805   2.482   2.026   0.120
  306EMI    N00 5806   2.617   2.067   0.273
  306EMI    C06 5807   2.920   2.056   0.465
  306EMI    H0F 5808   3.014   2.042   0.413
  306EMI    C0N 5809   2.927   2.162   0.574
  306EMI    H0O 5810   2.985   2.127   0.658
  306EMI    H0P 5811   2.972   2.253   0.537
  306EMI    H0Q 5812   2.827   2.186   0.606
  306EMI    N02 5813   2.809   2.081   0.371
  306EMI    H0E 5814   2.897   1.964   0.512
  307EMI    C01 5815   0.465   0.842   0.843
  307EMI    C04 5816   0.488   1.056   0.871
  307EMI    C03 5817   0.604   1.008   0.828
  307EMI    H07 5818   0.423   0.743   0.839
  307EMI    H09 5819   0.457   1.156   0.889
  307EMI    H08 5820   0.697   1.055   0.803
  307EMI    C05 5821   0.702   0.779   0.801
  307EMI    H0B 5822   0.677   0.679   0.833
  307EMI    H0C 5823   0.722   0.779   0.695
  307EMI    H0D 5824   0.793   0.810   0.850
  307EMI    N00 5825   0.591   0.871   0.823
  307EMI    C06 5826   0.265   0.957   0.941
  307EMI    H0F 5827   0.261   0.936   1.047
  307EMI    C0N 5828   0.204   1.094   0.916
  307EMI    H0O 5829   0.102   1.095   0.951
  307EMI    H0P 5830   0.257   1.174   0.964
  307EMI    H0Q 5831   0.201   1.114   0.810
  307EMI    N02 5832   0.403   0.948   0.889
  307EMI    H0E 5833   0.206   0.882   0.890
  308EMI    C01 5834   3.036   0.312   3.061
  308EMI    C04 5835   2.977   0.110   3.017
  308EMI    C03 5836   3.108   0.111   3.039
  308EMI    H07 5837   3.028   0.414   3.092
  308EMI    H09 5838   2.912   0.027   3.006
  308EMI    H08 5839   3.175   0.028   3.047
  308EMI    C05 5840   3.282   0.293   3.079
  308EMI    H0B 5841   3.311   0.295   3.182
  308EMI    H0C 5842   3.351   0.229   3.026
  308EMI    H0D 5843   3.290   0.394   3.041
  308EMI    N00 5844   3.146   0.242   3.060
  308EMI    C06 5845   2.799   0.291   2.981
  308EMI    H0F 5846   2.793   0.299   2.873
  308EMI    C0N 5847   2.681   0.215   3.039
  308EMI    H0O 5848   2.589   0.258   3.002
  308EMI    H0P 5849   2.685   0.111   3.014
  308EMI    H0Q 5850   2.678   0.227   3.146
  308EMI    N02 5851   2.934   0.241   3.017
  308EMI    H0E 5852   2.793   0.390   3.023
  309EMI    C01 5853   3.996   4.826   4.294
  309EMI    C04 5854   3.946   4.628   4.219
  309EMI    C03 5855   3.956   4.709   4.114
  309EMI    H07 5856   4.024   4.906   4.360
  309EMI    H09 5857   3.931   4.522   4.224
  309EMI    H08 5858   3.949   4.689   4.010
  309EMI    C05 5859   4.015   4.954   4.082
  309EMI    H0B 5860   3.994   5.043   4.139
  309EMI    H0C 5861   4.119   4.956   4.054
  309EMI    H0D 5862   3.953   4.952   3.993
  309EMI    N00 5863   3.988   4.834   4.163
  309EMI    C06 5864   3.966   4.655   4.472
  309EMI    H0F 5865   3.907   4.726   4.528
  309EMI    C0N 5866   3.902   4.518   4.488
  309EMI    H0O 5867   3.879   4.499   4.593
  309EMI    H0P 5868   3.811   4.510   4.430
  309EMI    H0Q 5869   3.968   4.438   4.457
  309EMI    N02 5870   3.971   4.703   4.332
  309EMI    H0E 5871   4.069   4.654   4.508
  310EMI    C01 5872   3.471   4.338   3.967
  310EMI    C04 5873   3.576   4.147   3.963
  310EMI    C03 5874   3.667   4.244   3.971
  310EMI    H07 5875   3.393   4.412   3.965
  310EMI    H09 5876   3.585   4.041   3.960
  310EMI    H08 5877   3.773   4.238   3.979
  310EMI    C05 5878   3.661   4.494   3.928
  310EMI    H0B 5879   3.602   4.575   3.969
  310EMI    H0C 5880   3.761   4.500   3.968
  310EMI    H0D 5881   3.663   4.507   3.821
  310EMI    N00 5882   3.600   4.364   3.960
  310EMI    C06 5883   3.328   4.137   3.919
  310EMI    H0F 5884   3.318   4.129   3.812
  310EMI    C0N 5885   3.315   4.001   3.984
  310EMI    H0O 5886   3.210   3.973   3.992
  310EMI    H0P 5887   3.362   3.924   3.924
  310EMI    H0Q 5888   3.361   4.000   4.081
  310EMI    N02 5889   3.453   4.208   3.949
  310EMI    H0E 5890   3.247   4.198   3.953
  311EMI    C01 5891   3.144   2.865   0.443
  311EMI    C04 5892   3.108   2.942   0.243
  311EMI    C03 5893   3.130   3.046   0.323
  311EMI    H07 5894   3.162   2.796   0.522
  311EMI    H09 5895   3.093   2.941   0.137
  311EMI    H08 5896   3.134   3.149   0.296
  311EMI    C05 5897   3.186   3.076   0.567
  311EMI    H0B 5898   3.227   3.014   0.643
  311EMI    H0C 5899   3.259   3.150   0.540
  311EMI    H0D 5900   3.098   3.123   0.606
  311EMI    N00 5901   3.153   2.996   0.449
  311EMI    C06 5902   3.133   2.693   0.267
  311EMI    H0F 5903   3.037   2.652   0.241
  311EMI    C0N 5904   3.225   2.697   0.148
  311EMI    H0O 5905   3.243   2.597   0.109
  311EMI    H0P 5906   3.179   2.754   0.070
  311EMI    H0Q 5907   3.320   2.742   0.170
  311EMI    N02 5908   3.119   2.828   0.320
  311EMI    H0E 5909   3.182   2.632   0.342
  312EMI    C01 5910   4.228   3.717   1.928
  312EMI    C04 5911   4.087   3.753   2.090
  312EMI    C03 5912   4.202   3.813   2.121
  312EMI    H07 5913   4.272   3.681   1.837
  312EMI    H09 5914   3.993   3.751   2.140
  312EMI    H08 5915   4.229   3.874   2.204
  312EMI    C05 5916   4.439   3.791   2.031
  312EMI    H0B 5917   4.481   3.785   1.932
  312EMI    H0C 5918   4.470   3.882   2.077
  312EMI    H0D 5919   4.477   3.708   2.089
  312EMI    N00 5920   4.293   3.779   2.023
  312EMI    C06 5921   4.015   3.594   1.907
  312EMI    H0F 5922   4.012   3.501   1.961
  312EMI    C0N 5923   3.880   3.657   1.886
  312EMI    H0O 5924   3.843   3.629   1.789
  312EMI    H0P 5925   3.808   3.630   1.961
  312EMI    H0Q 5926   3.889   3.765   1.890
  312EMI    N02 5927   4.109   3.685   1.973
  312EMI    H0E 5928   4.060   3.577   1.811
  313EMI    C01 5929   1.312   4.372   2.892
  313EMI    C04 5930   1.113   4.408   2.971
  313EMI    C03 5931   1.173   4.525   2.956
  313EMI    H07 5932   1.398   4.322   2.854
  313EMI    H09 5933   1.016   4.383   3.007
  313EMI    H08 5934   1.136   4.623   2.979
  313EMI    C05 5935   1.402   4.603   2.880
  313EMI    H0B 5936   1.390   4.642   2.780
  313EMI    H0C 5937   1.391   4.685   2.949
  313EMI    H0D 5938   1.500   4.560   2.890
  313EMI    N00 5939   1.299   4.502   2.906
  313EMI    C06 5940   1.167   4.169   2.912
  313EMI    H0F 5941   1.185   4.111   3.002
  313EMI    C0N 5942   1.023   4.159   2.868
  313EMI    H0O 5943   1.019   4.092   2.783
  313EMI    H0P 5944   0.962   4.121   2.948
  313EMI    H0Q 5945   0.982   4.251   2.830
  313EMI    N02 5946   1.202   4.311   2.930
  313EMI    H0E 5947   1.224   4.129   2.829
  314EMI    C01 5948   2.627   0.429   2.147
  314EMI    C04 5949   2.771   0.270   2.106
  314EMI    C03 5950   2.651   0.214   2.118
  314EMI    H07 5951   2.585   0.525   2.169
  314EMI    H09 5952   2.867   0.224   2.094
  314EMI    H08 5953   2.624   0.111   2.120
  314EMI    C05 5954   2.419   0.298   2.167
  314EMI    H0B 5955   2.362   0.343   2.088
  314EMI    H0C 5956   2.396   0.193   2.176
  314EMI    H0D 5957   2.394   0.345   2.261
  314EMI    N00 5958   2.562   0.315   2.145
  314EMI    C06 5959   2.852   0.509   2.090
  314EMI    H0F 5960   2.899   0.543   2.181
  314EMI    C0N 5961   2.953   0.456   1.990
  314EMI    H0O 5962   3.017   0.536   1.957
  314EMI    H0P 5963   3.014   0.380   2.037
  314EMI    H0Q 5964   2.908   0.411   1.904
  314EMI    N02 5965   2.753   0.406   2.122
  314EMI    H0E 5966   2.799   0.591   2.045
  315EMI    C01 5967   2.536   2.275   0.909
  315EMI    C04 5968   2.729   2.335   0.829
  315EMI    C03 5969   2.655   2.444   0.840
  315EMI    H07 5970   2.451   2.214   0.932
  315EMI    H09 5971   2.827   2.320   0.788
  315EMI    H08 5972   2.678   2.543   0.806
  315EMI    C05 5973   2.419   2.493   0.918
  315EMI    H0B 5974   2.347   2.438   0.977
  315EMI    H0C 5975   2.450   2.583   0.966
  315EMI    H0D 5976   2.374   2.515   0.822
  315EMI    N00 5977   2.534   2.406   0.894
  315EMI    C06 5978   2.690   2.086   0.859
  315EMI    H0F 5979   2.729   2.068   0.760
  315EMI    C0N 5980   2.785   2.039   0.967
  315EMI    H0O 5981   2.784   1.932   0.972
  315EMI    H0P 5982   2.885   2.070   0.941
  315EMI    H0Q 5983   2.760   2.081   1.064
  315EMI    N02 5984   2.653   2.228   0.871
  315EMI    H0E 5985   2.598   2.030   0.857
  316EMI    C01 5986   1.833   2.659   2.092
  316EMI    C04 5987   1.773   2.457   2.146
  316EMI    C03 5988   1.709   2.542   2.226
  316EMI    H07 5989   1.880   2.743   2.043
  316EMI    H09 5990   1.767   2.350   2.140
  316EMI    H08 5991   1.636   2.526   2.303
  316EMI    C05 5992   1.721   2.783   2.278
  316EMI    H0B 5993   1.796   2.859   2.268
  316EMI    H0C 5994   1.624   2.822   2.253
  316EMI    H0D 5995   1.715   2.751   2.381
  316EMI    N00 5996   1.751   2.668   2.195
  316EMI    C06 5997   1.955   2.472   1.975
  316EMI    H0F 5998   2.019   2.411   2.036
  316EMI    C0N 5999   1.896   2.390   1.863
  316EMI    H0O 6000   1.973   2.371   1.790
  316EMI    H0P 6001   1.857   2.296   1.899
  316EMI    H0Q 6002   1.817   2.443   1.813
  316EMI    N02 6003   1.853   2.532   2.064
  316EMI    H0E 6004   2.013   2.553   1.936
  317EMI    C01 6005   3.311   2.288   0.807
  317EMI    C04 6006   3.524   2.328   0.818
  317EMI    C03 6007   3.488   2.330   0.689
  317EMI    H07 6008   3.212   2.256   0.831
  317EMI    H09 6009   3.621   2.342   0.860
  317EMI    H08 6010   3.547   2.343   0.602
  317EMI    C05 6011   3.273   2.285   0.562
  317EMI    H0B 6012   3.205   2.367   0.550
  317EMI    H0C 6013   3.337   2.276   0.475
  317EMI    H0D 6014   3.216   2.193   0.570
  317EMI    N00 6015   3.353   2.302   0.683
  317EMI    C06 6016   3.410   2.261   1.035
  317EMI    H0F 6017   3.492   2.192   1.045
  317EMI    C0N 6018   3.422   2.375   1.133
  317EMI    H0O 6019   3.449   2.338   1.231
  317EMI    H0P 6020   3.501   2.442   1.101
  317EMI    H0Q 6021   3.330   2.431   1.144
  317EMI    N02 6022   3.411   2.298   0.891
  317EMI    H0E 6023   3.322   2.201   1.052
  318EMI    C01 6024   2.330   1.711   0.702
  318EMI    C04 6025   2.489   1.855   0.667
  318EMI    C03 6026   2.545   1.741   0.706
  318EMI    H07 6027   2.234   1.664   0.702
  318EMI    H09 6028   2.536   1.944   0.631
  318EMI    H08 6029   2.647   1.712   0.712
  318EMI    C05 6030   2.466   1.509   0.751
  318EMI    H0B 6031   2.478   1.462   0.655
  318EMI    H0C 6032   2.559   1.496   0.805
  318EMI    H0D 6033   2.382   1.468   0.805
  318EMI    N00 6034   2.444   1.650   0.726
  318EMI    C06 6035   2.253   1.941   0.638
  318EMI    H0F 6036   2.266   2.024   0.706
  318EMI    C0N 6037   2.265   1.986   0.495
  318EMI    H0O 6038   2.214   2.079   0.479
  318EMI    H0P 6039   2.370   2.001   0.471
  318EMI    H0Q 6040   2.225   1.915   0.424
  318EMI    N02 6041   2.352   1.837   0.671
  318EMI    H0E 6042   2.154   1.903   0.658
  319EMI    C01 6043   3.091   0.343   4.888
  319EMI    C04 6044   3.092   0.132   4.937
  319EMI    C03 6045   3.185   0.191   5.012
  319EMI    H07 6046   3.066   0.434   4.838
  319EMI    H09 6047   3.064   0.029   4.934
  319EMI    H08 6048   3.250   0.149   0.041
  319EMI    C05 6049   3.276   0.428   5.030
  319EMI    H0B 6050   3.226   0.523   5.035
  319EMI    H0C 6051   3.311   0.400   0.084
  319EMI    H0D 6052   3.360   0.436   4.963
  319EMI    N00 6053   3.184   0.325   4.979
  319EMI    C06 6054   2.930   0.210   4.755
  319EMI    H0F 6055   2.973   0.183   4.660
  319EMI    C0N 6056   2.834   0.105   4.802
  319EMI    H0O 6057   2.743   0.111   4.744
  319EMI    H0P 6058   2.878   0.008   4.786
  319EMI    H0Q 6059   2.811   0.116   4.906
  319EMI    N02 6060   3.038   0.229   4.854
  319EMI    H0E 6061   2.879   0.305   4.745
  320EMI    C01 6062   2.281   3.696   0.535
  320EMI    C04 6063   2.456   3.575   0.548
  320EMI    C03 6064   2.497   3.701   0.545
  320EMI    H07 6065   2.181   3.728   0.529
  320EMI    H09 6066   2.513   3.486   0.553
  320EMI    H08 6067   2.598   3.737   0.547
  320EMI    C05 6068   2.379   3.921   0.580
  320EMI    H0B 6069   2.298   3.940   0.648
  320EMI    H0C 6070   2.474   3.947   0.625
  320EMI    H0D 6071   2.368   3.975   0.488
  320EMI    N00 6072   2.384   3.777   0.550
  320EMI    C06 6073   2.246   3.447   0.508
  320EMI    H0F 6074   2.250   3.420   0.404
  320EMI    C0N 6075   2.303   3.329   0.584
  320EMI    H0O 6076   2.233   3.246   0.584
  320EMI    H0P 6077   2.394   3.294   0.538
  320EMI    H0Q 6078   2.325   3.354   0.687
  320EMI    N02 6079   2.323   3.572   0.527
  320EMI    H0E 6080   2.147   3.462   0.544
  321EMI    C01 6081   4.686   4.028   2.588
  321EMI    C04 6082   4.661   3.812   2.597
  321EMI    C03 6083   4.648   3.861   2.721
  321EMI    H07 6084   4.710   4.125   2.553
  321EMI    H09 6085   4.667   3.711   2.563
  321EMI    H08 6086   4.639   3.811   2.816
  321EMI    C05 6087   4.660   4.092   2.825
  321EMI    H0B 6088   4.642   4.192   2.789
  321EMI    H0C 6089   4.584   4.064   2.896
  321EMI    H0D 6090   4.758   4.091   2.872
  321EMI    N00 6091   4.662   3.997   2.713
  321EMI    C06 6092   4.726   3.914   2.371
  321EMI    H0F 6093   4.832   3.895   2.364
  321EMI    C0N 6094   4.647   3.811   2.292
  321EMI    H0O 6095   4.678   3.813   2.188
  321EMI    H0P 6096   4.665   3.710   2.328
  321EMI    H0Q 6097   4.541   3.830   2.297
  321EMI    N02 6098   4.692   3.919   2.515
  321EMI    H0E 6099   4.708   4.012   2.330
  322EMI    C01 6100   3.006   4.030   4.235
  322EMI    C04 6101   3.139   3.880   4.322
  322EMI    C03 6102   3.213   3.986   4.292
  322EMI    H07 6103   2.917   4.081   4.204
  322EMI    H09 6104   3.163   3.787   4.368
  322EMI    H08 6105   3.317   4.000   4.305
  322EMI    C05 6106   3.167   4.214   4.193
  322EMI    H0B 6107   3.103   4.248   4.113
  322EMI    H0C 6108   3.155   4.283   4.273
  322EMI    H0D 6109   3.270   4.217   4.166
  322EMI    N00 6110   3.128   4.079   4.235
  322EMI    C06 6111   2.896   3.847   4.358
  322EMI    H0F 6112   2.879   3.748   4.319
  322EMI    C0N 6113   2.930   3.844   4.505
  322EMI    H0O 6114   2.841   3.820   4.559
  322EMI    H0P 6115   3.002   3.766   4.528
  322EMI    H0Q 6116   2.966   3.939   4.541
  322EMI    N02 6117   3.008   3.912   4.292
  322EMI    H0E 6118   2.806   3.905   4.340
  323EMI    C01 6119   2.276   0.331   0.343
  323EMI    C04 6120   2.402   0.491   0.274
  323EMI    C03 6121   2.474   0.379   0.270
  323EMI    H07 6122   2.191   0.275   0.378
  323EMI    H09 6123   2.427   0.590   0.243
  323EMI    H08 6124   2.574   0.365   0.235
  323EMI    C05 6125   2.419   0.132   0.307
  323EMI    H0B 6126   2.336   0.082   0.260
  323EMI    H0C 6127   2.509   0.113   0.251
  323EMI    H0D 6128   2.428   0.097   0.408
  323EMI    N00 6129   2.390   0.276   0.309
  323EMI    C06 6130   2.162   0.554   0.329
  323EMI    H0F 6131   2.177   0.619   0.413
  323EMI    C0N 6132   2.131   0.629   0.201
  323EMI    H0O 6133   2.027   0.659   0.198
  323EMI    H0P 6134   2.191   0.719   0.195
  323EMI    H0Q 6135   2.151   0.568   0.114
  323EMI    N02 6136   2.276   0.460   0.319
  323EMI    H0E 6137   2.076   0.493   0.349
  324EMI    C01 6138   4.215   0.877   3.014
  324EMI    C04 6139   4.010   0.926   2.971
  324EMI    C03 6140   4.012   0.805   3.028
  324EMI    H07 6141   4.321   0.884   3.023
  324EMI    H09 6142   3.929   0.977   2.926
  324EMI    H08 6143   3.935   0.733   3.045
  324EMI    C05 6144   4.188   0.661   3.137
  324EMI    H0B 6145   4.294   0.643   3.131
  324EMI    H0C 6146   4.165   0.676   3.241
  324EMI    H0D 6147   4.136   0.573   3.103
  324EMI    N00 6148   4.143   0.777   3.059
  324EMI    C06 6149   4.185   1.107   2.923
  324EMI    H0F 6150   4.250   1.088   2.841
  324EMI    C0N 6151   4.077   1.205   2.880
  324EMI    H0O 6152   4.119   1.283   2.818
  324EMI    H0P 6153   4.001   1.158   2.819
  324EMI    H0Q 6154   4.030   1.253   2.965
  324EMI    N02 6155   4.139   0.973   2.968
  324EMI    H0E 6156   4.238   1.153   3.004
  325EMI    C01 6157   3.636   1.029   4.274
  325EMI    C04 6158   3.458   1.085   4.165
  325EMI    C03 6159   3.449   0.955   4.193
  325EMI    H07 6160   3.731   1.036   4.324
  325EMI    H09 6161   3.384   1.150   4.123
  325EMI    H08 6162   3.366   0.888   4.181
  325EMI    C05 6163   3.584   0.790   4.326
  325EMI    H0B 6164   3.652   0.802   4.409
  325EMI    H0C 6165   3.489   0.754   4.362
  325EMI    H0D 6166   3.624   0.722   4.252
  325EMI    N00 6167   3.561   0.921   4.264
  325EMI    C06 6168   3.626   1.270   4.211
  325EMI    H0F 6169   3.670   1.292   4.115
  325EMI    C0N 6170   3.516   1.367   4.244
  325EMI    H0O 6171   3.555   1.467   4.256
  325EMI    H0P 6172   3.442   1.371   4.165
  325EMI    H0Q 6173   3.467   1.338   4.336
  325EMI    N02 6174   3.579   1.130   4.212
  325EMI    H0E 6175   3.699   1.281   4.289
  326EMI    C01 6176   2.585   3.622   3.263
  326EMI    C04 6177   2.610   3.457   3.400
  326EMI    C03 6178   2.604   3.568   3.473
  326EMI    H07 6179   2.572   3.676   3.173
  326EMI    H09 6180   2.617   3.354   3.430
  326EMI    H08 6181   2.606   3.581   3.580
  326EMI    C05 6182   2.572   3.813   3.415
  326EMI    H0B 6183   2.507   3.860   3.343
  326EMI    H0C 6184   2.530   3.816   3.514
  326EMI    H0D 6185   2.668   3.860   3.412
  326EMI    N00 6186   2.588   3.672   3.384
  326EMI    C06 6187   2.644   3.414   3.150
  326EMI    H0F 6188   2.750   3.396   3.146
  326EMI    C0N 6189   2.560   3.290   3.148
  326EMI    H0O 6190   2.567   3.238   3.054
  326EMI    H0P 6191   2.586   3.221   3.227
  326EMI    H0Q 6192   2.458   3.320   3.162
  326EMI    N02 6193   2.615   3.496   3.268
  326EMI    H0E 6194   2.619   3.473   3.063
  327EMI    C01 6195   0.422   1.393   1.259
  327EMI    C04 6196   0.357   1.570   1.365
  327EMI    C03 6197   0.248   1.505   1.326
  327EMI    H07 6198   0.484   1.312   1.224
  327EMI    H09 6199   0.367   1.657   1.425
  327EMI    H08 6200   0.145   1.524   1.345
  327EMI    C05 6201   0.204   1.292   1.196
  327EMI    H0B 6202   0.259   1.201   1.180
  327EMI    H0C 6203   0.122   1.267   1.262
  327EMI    H0D 6204   0.161   1.328   1.104
  327EMI    N00 6205   0.290   1.393   1.257
  327EMI    C06 6206   0.608   1.549   1.324
  327EMI    H0F 6207   0.634   1.619   1.247
  327EMI    C0N 6208   0.637   1.611   1.458
  327EMI    H0O 6209   0.743   1.601   1.482
  327EMI    H0P 6210   0.613   1.716   1.457
  327EMI    H0Q 6211   0.581   1.562   1.536
  327EMI    N02 6212   0.466   1.506   1.310
  327EMI    H0E 6213   0.668   1.460   1.316
  328EMI    C01 6214   4.422   0.892   4.722
  328EMI    C04 6215   4.625   0.943   4.662
  328EMI    C03 6216   4.565   1.055   4.704
  328EMI    H07 6217   4.334   0.835   4.745
  328EMI    H09 6218   4.724   0.929   4.627
  328EMI    H08 6219   4.605   1.154   4.713
  328EMI    C05 6220   4.334   1.118   4.781
  328EMI    H0B 6221   4.238   1.085   4.744
  328EMI    H0C 6222   4.330   1.125   4.888
  328EMI    H0D 6223   4.354   1.217   4.741
  328EMI    N00 6224   4.436   1.022   4.738
  328EMI    C06 6225   4.558   0.701   4.633
  328EMI    H0F 6226   4.550   0.690   4.526
  328EMI    C0N 6227   4.694   0.653   4.678
  328EMI    H0O 6228   4.706   0.548   4.656
  328EMI    H0P 6229   4.774   0.707   4.628
  328EMI    H0Q 6230   4.704   0.666   4.785
  328EMI    N02 6231   4.532   0.841   4.670
  328EMI    H0E 6232   4.484   0.638   4.682
  329EMI    C01 6233   2.640   2.923   1.327
  329EMI    C04 6234   2.447   2.911   1.426
  329EMI    C03 6235   2.502   3.028   1.458
  329EMI    H07 6236   2.725   2.898   1.267
  329EMI    H09 6237   2.354   2.870   1.459
  329EMI    H08 6238   2.465   3.106   1.522
  329EMI    C05 6239   2.715   3.151   1.395
  329EMI    H0B 6240   2.775   3.154   1.306
  329EMI    H0C 6241   2.656   3.242   1.400
  329EMI    H0D 6242   2.777   3.146   1.483
  329EMI    N00 6243   2.623   3.036   1.392
  329EMI    C06 6244   2.519   2.706   1.294
  329EMI    H0F 6245   2.561   2.636   1.363
  329EMI    C0N 6246   2.375   2.669   1.266
  329EMI    H0O 6247   2.368   2.599   1.183
  329EMI    H0P 6248   2.335   2.617   1.352
  329EMI    H0Q 6249   2.313   2.755   1.244
  329EMI    N02 6250   2.537   2.843   1.348
  329EMI    H0E 6251   2.572   2.702   1.200
  330EMI    C01 6252   0.463   0.162   1.420
  330EMI    C04 6253   0.366   0.265   1.255
  330EMI    C03 6254   0.300   0.296   1.366
  330EMI    H07 6255   0.528   0.095   1.474
  330EMI    H09 6256   0.347   0.292   1.153
  330EMI    H08 6257   0.212   0.355   1.378
  330EMI    C05 6258   0.325   0.241   1.611
  330EMI    H0B 6259   0.398   0.188   1.671
  330EMI    H0C 6260   0.316   0.344   1.640
  330EMI    H0D 6261   0.229   0.191   1.622
  330EMI    N00 6262   0.363   0.231   1.470
  330EMI    C06 6263   0.575   0.139   1.200
  330EMI    H0F 6264   0.531   0.077   1.122
  330EMI    C0N 6265   0.648   0.261   1.149
  330EMI    H0O 6266   0.750   0.237   1.126
  330EMI    H0P 6267   0.599   0.297   1.060
  330EMI    H0Q 6268   0.647   0.339   1.222
  330EMI    N02 6269   0.469   0.181   1.291
  330EMI    H0E 6270   0.643   0.075   1.256
  331EMI    C01 6271   1.438   2.601   2.016
  331EMI    C04 6272   1.547   2.427   1.943
  331EMI    C03 6273   1.564   2.526   1.855
  331EMI    H07 6274   1.377   2.664   2.077
  331EMI    H09 6275   1.588   2.328   1.945
  331EMI    H08 6276   1.623   2.530   1.767
  331EMI    C05 6277   1.461   2.754   1.823
  331EMI    H0B 6278   1.480   2.840   1.885
  331EMI    H0C 6279   1.527   2.759   1.738
  331EMI    H0D 6280   1.360   2.755   1.787
  331EMI    N00 6281   1.488   2.632   1.899
  331EMI    C06 6282   1.414   2.401   2.159
  331EMI    H0F 6283   1.322   2.354   2.128
  331EMI    C0N 6284   1.502   2.292   2.216
  331EMI    H0O 6285   1.435   2.232   2.276
  331EMI    H0P 6286   1.545   2.228   2.141
  331EMI    H0Q 6287   1.579   2.324   2.284
  331EMI    N02 6288   1.464   2.475   2.042
  331EMI    H0E 6289   1.395   2.472   2.238
  332EMI    C01 6290   1.355   2.488   3.834
  332EMI    C04 6291   1.436   2.374   3.999
  332EMI    C03 6292   1.510   2.484   3.985
  332EMI    H07 6293   1.300   2.510   3.745
  332EMI    H09 6294   1.448   2.293   4.067
  332EMI    H08 6295   1.598   2.515   4.037
  332EMI    C05 6296   1.521   2.672   3.814
  332EMI    H0B 6297   1.454   2.715   3.741
  332EMI    H0C 6298   1.546   2.747   3.888
  332EMI    H0D 6299   1.612   2.641   3.764
  332EMI    N00 6300   1.459   2.555   3.878
  332EMI    C06 6301   1.236   2.272   3.880
  332EMI    H0F 6302   1.293   2.190   3.841
  332EMI    C0N 6303   1.153   2.229   3.999
  332EMI    H0O 6304   1.090   2.146   3.972
  332EMI    H0P 6305   1.216   2.199   4.081
  332EMI    H0Q 6306   1.088   2.309   4.032
  332EMI    N02 6307   1.337   2.378   3.905
  332EMI    H0E 6308   1.172   2.309   3.801
  333EMI    C01 6309   0.280   4.111   2.514
  333EMI    C04 6310   0.342   4.087   2.307
  333EMI    C03 6311   0.314   3.966   2.356
  333EMI    H07 6312   0.255   4.153   2.609
  333EMI    H09 6313   0.376   4.113   2.211
  333EMI    H08 6314   0.321   3.869   2.310
  333EMI    C05 6315   0.252   3.876   2.584
  333EMI    H0B 6316   0.158   3.893   2.635
  333EMI    H0C 6317   0.250   3.779   2.537
  333EMI    H0D 6318   0.331   3.876   2.657
  333EMI    N00 6319   0.278   3.983   2.488
  333EMI    C06 6320   0.350   4.323   2.401
  333EMI    H0F 6321   0.453   4.345   2.424
  333EMI    C0N 6322   0.313   4.378   2.265
  333EMI    H0O 6323   0.287   4.483   2.269
  333EMI    H0P 6324   0.396   4.371   2.197
  333EMI    H0Q 6325   0.229   4.325   2.224
  333EMI    N02 6326   0.326   4.177   2.410
  333EMI    H0E 6327   0.287   4.370   2.476
  334EMI    C01 6328   4.779   2.992   0.139
  334EMI    C04 6329   4.931   2.943   0.286
  334EMI    C03 6330   4.929   3.076   0.273
  334EMI    H07 6331   4.705   2.984   0.061
  334EMI    H09 6332   4.996   2.882   0.346
  334EMI    H08 6333   4.990   3.150   0.319
  334EMI    C05 6334   4.798   3.240   0.128
  334EMI    H0B 6335   4.705   3.275   0.169
  334EMI    H0C 6336   4.877   3.311   0.153
  334EMI    H0D 6337   4.791   3.237   0.020
  334EMI    N00 6338   4.833   3.106   0.177
  334EMI    C06 6339   4.812   2.746   0.174
  334EMI    H0F 6340   4.869   2.712   0.089
  334EMI    C0N 6341   4.845   2.657   0.293
  334EMI    H0O 6342   4.806   2.558   0.276
  334EMI    H0P 6343   4.952   2.648   0.304
  334EMI    H0Q 6344   4.804   2.695   0.386
  334EMI    N02 6345   4.840   2.891   0.196
  334EMI    H0E 6346   4.707   2.738   0.150
  335EMI    C01 6347   1.713   1.596   1.303
  335EMI    C04 6348   1.576   1.763   1.303
  335EMI    C03 6349   1.503   1.653   1.308
  335EMI    H07 6350   1.800   1.535   1.304
  335EMI    H09 6351   1.545   1.864   1.304
  335EMI    H08 6352   1.397   1.643   1.313
  335EMI    C05 6353   1.557   1.407   1.309
  335EMI    H0B 6354   1.648   1.351   1.321
  335EMI    H0C 6355   1.491   1.388   1.393
  335EMI    H0D 6356   1.514   1.383   1.214
  335EMI    N00 6357   1.591   1.548   1.308
  335EMI    C06 6358   1.823   1.820   1.311
  335EMI    H0F 6359   1.850   1.859   1.214
  335EMI    C0N 6360   1.792   1.927   1.412
  335EMI    H0O 6361   1.882   1.981   1.438
  335EMI    H0P 6362   1.718   1.998   1.376
  335EMI    H0Q 6363   1.753   1.880   1.502
  335EMI    N02 6364   1.709   1.727   1.299
  335EMI    H0E 6365   1.905   1.764   1.352
  336EMI    C01 6366   4.018   3.870   2.511
  336EMI    C04 6367   4.187   3.807   2.634
  336EMI    C03 6368   4.087   3.720   2.655
  336EMI    H07 6369   3.955   3.929   2.449
  336EMI    H09 6370   4.281   3.813   2.684
  336EMI    H08 6371   4.081   3.639   2.725
  336EMI    C05 6372   3.846   3.704   2.572
  336EMI    H0B 6373   3.799   3.728   2.478
  336EMI    H0C 6374   3.850   3.597   2.587
  336EMI    H0D 6375   3.789   3.751   2.651
  336EMI    N00 6376   3.981   3.762   2.576
  336EMI    C06 6377   4.218   4.012   2.487
  336EMI    H0F 6378   4.195   4.098   2.547
  336EMI    C0N 6379   4.367   3.982   2.485
  336EMI    H0O 6380   4.421   4.053   2.424
  336EMI    H0P 6381   4.407   3.988   2.585
  336EMI    H0Q 6382   4.386   3.882   2.447
  336EMI    N02 6383   4.141   3.901   2.545
  336EMI    H0E 6384   4.184   4.025   2.386
  337EMI    C01 6385   0.473   3.466   1.588
  337EMI    C04 6386   0.421   3.532   1.386
  337EMI    C03 6387   0.363   3.414   1.407
  337EMI    H07 6388   0.516   3.461   1.686
  337EMI    H09 6389   0.417   3.595   1.300
  337EMI    H08 6390   0.302   3.354   1.342
  337EMI    C05 6391   0.354   3.250   1.603
  337EMI    H0B 6392   0.350   3.264   1.710
  337EMI    H0C 6393   0.257   3.217   1.568
  337EMI    H0D 6394   0.427   3.174   1.583
  337EMI    N00 6395   0.394   3.375   1.536
  337EMI    C06 6396   0.574   3.684   1.525
  337EMI    H0F 6397   0.674   3.645   1.538
  337EMI    C0N 6398   0.574   3.788   1.414
  337EMI    H0O 6399   0.623   3.879   1.448
  337EMI    H0P 6400   0.625   3.754   1.325
  337EMI    H0Q 6401   0.474   3.816   1.386
  337EMI    N02 6402   0.490   3.564   1.502
  337EMI    H0E 6403   0.534   3.730   1.615
  338EMI    C01 6404   0.986   1.041   4.372
  338EMI    C04 6405   0.866   0.929   4.229
  338EMI    C03 6406   0.785   0.970   4.326
  338EMI    H07 6407   1.069   1.092   4.416
  338EMI    H09 6408   0.845   0.879   4.137
  338EMI    H08 6409   0.679   0.961   4.334
  338EMI    C05 6410   0.817   1.105   4.540
  338EMI    H0B 6411   0.900   1.125   4.604
  338EMI    H0C 6412   0.769   1.198   4.514
  338EMI    H0D 6413   0.744   1.043   4.591
  338EMI    N00 6414   0.863   1.039   4.417
  338EMI    C06 6415   1.109   0.964   4.172
  338EMI    H0F 6416   1.135   0.860   4.163
  338EMI    C0N 6417   1.087   1.026   4.036
  338EMI    H0O 6418   1.182   1.038   3.987
  338EMI    H0P 6419   1.025   0.962   3.975
  338EMI    H0Q 6420   1.042   1.124   4.042
  338EMI    N02 6421   0.992   0.975   4.259
  338EMI    H0E 6422   1.190   1.015   4.221
  339EMI    C01 6423   2.164   4.107   1.364
  339EMI    C04 6424   2.266   4.274   1.268
  339EMI    C03 6425   2.349   4.169   1.267
  339EMI    H07 6426   2.094   4.051   1.422
  339EMI    H09 6427   2.283   4.375   1.240
  339EMI    H08 6428   2.450   4.162   1.236
  339EMI    C05 6429   2.335   3.931   1.347
  339EMI    H0B 6430   2.258   3.857   1.343
  339EMI    H0C 6431   2.413   3.909   1.276
  339EMI    H0D 6432   2.378   3.934   1.446
  339EMI    N00 6433   2.281   4.064   1.324
  339EMI    C06 6434   2.046   4.328   1.377
  339EMI    H0F 6435   2.093   4.403   1.439
  339EMI    C0N 6436   1.974   4.390   1.261
  339EMI    H0O 6437   1.940   4.486   1.295
  339EMI    H0P 6438   2.039   4.405   1.175
  339EMI    H0Q 6439   1.888   4.332   1.229
  339EMI    N02 6440   2.152   4.235   1.334
  339EMI    H0E 6441   1.979   4.276   1.445
  340EMI    C01 6442   3.174   3.787   2.721
  340EMI    C04 6443   3.085   3.602   2.791
  340EMI    C03 6444   2.986   3.681   2.752
  340EMI    H07 6445   3.246   3.864   2.697
  340EMI    H09 6446   3.080   3.504   2.832
  340EMI    H08 6447   2.881   3.663   2.757
  340EMI    C05 6448   2.969   3.914   2.657
  340EMI    H0B 6449   3.018   3.956   2.570
  340EMI    H0C 6450   2.868   3.888   2.630
  340EMI    H0D 6451   2.966   3.987   2.735
  340EMI    N00 6452   3.044   3.797   2.705
  340EMI    C06 6453   3.336   3.620   2.816
  340EMI    H0F 6454   3.369   3.692   2.889
  340EMI    C0N 6455   3.332   3.485   2.887
  340EMI    H0O 6456   3.432   3.451   2.910
  340EMI    H0P 6457   3.276   3.489   2.979
  340EMI    H0Q 6458   3.287   3.409   2.825
  340EMI    N02 6459   3.204   3.669   2.772
  340EMI    H0E 6460   3.402   3.613   2.731
  341EMI    C01 6461   0.652   2.842   2.525
  341EMI    C04 6462   0.726   2.669   2.416
  341EMI    C03 6463   0.594   2.662   2.419
  341EMI    H07 6464   0.644   2.935   2.579
  341EMI    H09 6465   0.795   2.600   2.372
  341EMI    H08 6466   0.523   2.593   2.380
  341EMI    C05 6467   0.408   2.813   2.483
  341EMI    H0B 6468   0.378   2.845   2.385
  341EMI    H0C 6469   0.343   2.733   2.514
  341EMI    H0D 6470   0.396   2.894   2.552
  341EMI    N00 6471   0.548   2.774   2.481
  341EMI    C06 6472   0.902   2.831   2.501
  341EMI    H0F 6473   0.943   2.787   2.590
  341EMI    C0N 6474   0.986   2.799   2.377
  341EMI    H0O 6475   1.088   2.830   2.389
  341EMI    H0P 6476   0.990   2.693   2.359
  341EMI    H0Q 6477   0.945   2.845   2.289
  341EMI    N02 6478   0.763   2.782   2.487
  341EMI    H0E 6479   0.898   2.937   2.514
  342EMI    C01 6480   0.808   4.230   4.373
  342EMI    C04 6481   0.726   4.429   4.394
  342EMI    C03 6482   0.849   4.441   4.344
  342EMI    H07 6483   0.816   4.123   4.369
  342EMI    H09 6484   0.648   4.502   4.404
  342EMI    H08 6485   0.897   4.527   4.304
  342EMI    C05 6486   1.043   4.281   4.312
  342EMI    H0B 6487   1.044   4.230   4.216
  342EMI    H0C 6488   1.103   4.370   4.305
  342EMI    H0D 6489   1.080   4.213   4.387
  342EMI    N00 6490   0.904   4.315   4.343
  342EMI    C06 6491   0.585   4.238   4.487
  342EMI    H0F 6492   0.617   4.185   4.576
  342EMI    C0N 6493   0.492   4.344   4.540
  342EMI    H0O 6494   0.420   4.297   4.604
  342EMI    H0P 6495   0.544   4.419   4.597
  342EMI    H0Q 6496   0.438   4.393   4.460
  342EMI    N02 6497   0.704   4.295   4.419
  342EMI    H0E 6498   0.531   4.173   4.419
  343EMI    C01 6499   1.628   1.539   4.013
  343EMI    C04 6500   1.454   1.613   4.118
  343EMI    C03 6501   1.420   1.499   4.059
  343EMI    H07 6502   1.729   1.526   3.981
  343EMI    H09 6503   1.395   1.677   4.180
  343EMI    H08 6504   1.329   1.444   4.063
  343EMI    C05 6505   1.539   1.324   3.927
  343EMI    H0B 6506   1.638   1.283   3.934
  343EMI    H0C 6507   1.472   1.254   3.975
  343EMI    H0D 6508   1.510   1.334   3.825
  343EMI    N00 6509   1.531   1.452   3.996
  343EMI    C06 6510   1.662   1.756   4.131
  343EMI    H0F 6511   1.664   1.835   4.057
  343EMI    C0N 6512   1.600   1.809   4.258
  343EMI    H0O 6513   1.667   1.876   4.308
  343EMI    H0P 6514   1.510   1.865   4.234
  343EMI    H0Q 6515   1.576   1.728   4.325
  343EMI    N02 6516   1.583   1.641   4.082
  343EMI    H0E 6517   1.761   1.720   4.157
  344EMI    C01 6518   4.667   4.756   1.109
  344EMI    C04 6519   4.727   4.879   1.277
  344EMI    C03 6520   4.607   4.921   1.237
  344EMI    H07 6521   4.664   4.676   1.037
  344EMI    H09 6522   4.786   4.914   1.360
  344EMI    H08 6523   4.545   4.998   1.279
  344EMI    C05 6524   4.442   4.854   1.058
  344EMI    H0B 6525   4.428   4.770   0.991
  344EMI    H0C 6526   4.361   4.853   1.130
  344EMI    H0D 6527   4.436   4.947   1.003
  344EMI    N00 6528   4.569   4.843   1.130
  344EMI    C06 6529   4.885   4.691   1.213
  344EMI    H0F 6530   4.971   4.738   1.167
  344EMI    C0N 6531   4.912   4.664   1.360
  344EMI    H0O 6532   4.991   4.591   1.371
  344EMI    H0P 6533   4.943   4.754   1.413
  344EMI    H0Q 6534   4.823   4.625   1.409
  344EMI    N02 6535   4.765   4.776   1.195
  344EMI    H0E 6536   4.866   4.595   1.168
  345EMI    C01 6537   2.016   3.630   1.697
  345EMI    C04 6538   2.101   3.663   1.499
  345EMI    C03 6539   1.968   3.671   1.489
  345EMI    H07 6540   2.007   3.602   1.800
  345EMI    H09 6541   2.175   3.664   1.422
  345EMI    H08 6542   1.907   3.680   1.401
  345EMI    C05 6543   1.775   3.665   1.653
  345EMI    H0B 6544   1.763   3.641   1.757
  345EMI    H0C 6545   1.737   3.764   1.637
  345EMI    H0D 6546   1.714   3.598   1.594
  345EMI    N00 6547   1.916   3.656   1.615
  345EMI    C06 6548   2.265   3.615   1.689
  345EMI    H0F 6549   2.280   3.510   1.706
  345EMI    C0N 6550   2.374   3.664   1.596
  345EMI    H0O 6551   2.470   3.654   1.643
  345EMI    H0P 6552   2.377   3.607   1.504
  345EMI    H0Q 6553   2.359   3.768   1.573
  345EMI    N02 6554   2.130   3.636   1.632
  345EMI    H0E 6555   2.273   3.669   1.781
  346EMI    C01 6556   4.214   1.110   4.392
  346EMI    C04 6557   4.268   0.903   4.415
  346EMI    C03 6558   4.381   0.973   4.406
  346EMI    H07 6559   4.159   1.201   4.381
  346EMI    H09 6560   4.253   0.798   4.425
  346EMI    H08 6561   4.483   0.940   4.408
  346EMI    C05 6562   4.432   1.221   4.402
  346EMI    H0B 6563   4.371   1.310   4.397
  346EMI    H0C 6564   4.489   1.220   4.494
  346EMI    H0D 6565   4.500   1.219   4.319
  346EMI    N00 6566   4.344   1.105   4.398
  346EMI    C06 6567   4.019   0.955   4.403
  346EMI    H0F 6568   3.985   0.964   4.301
  346EMI    C0N 6569   3.989   0.818   4.459
  346EMI    H0O 6570   3.882   0.803   4.471
  346EMI    H0P 6571   4.024   0.740   4.392
  346EMI    H0Q 6572   4.036   0.804   4.555
  346EMI    N02 6573   4.163   0.990   4.402
  346EMI    H0E 6574   3.970   1.027   4.466
  347EMI    C01 6575   2.130   3.648   4.936
  347EMI    C04 6576   1.927   3.711   4.980
  347EMI    C03 6577   2.007   3.816   5.000
  347EMI    H07 6578   2.214   3.588   4.906
  347EMI    H09 6579   1.821   3.706   4.982
  347EMI    H08 6580   1.980   3.917   5.024
  347EMI    C05 6581   2.258   3.845   5.020
  347EMI    H0B 6582   2.346   3.793   4.985
  347EMI    H0C 6583   2.256   3.945   4.979
  347EMI    H0D 6584   2.265   3.854   0.082
  347EMI    N00 6585   2.136   3.771   4.982
  347EMI    C06 6586   1.956   3.466   4.917
  347EMI    H0F 6587   1.961   3.408   5.008
  347EMI    C0N 6588   1.816   3.462   4.857
  347EMI    H0O 6589   1.782   3.360   4.844
  347EMI    H0P 6590   1.742   3.512   4.917
  347EMI    H0Q 6591   1.814   3.507   4.759
  347EMI    N02 6592   2.006   3.603   4.945
  347EMI    H0E 6593   2.023   3.419   4.847
  348EMI    C01 6594   3.596   0.788   2.523
  348EMI    C04 6595   3.571   0.839   2.733
  348EMI    C03 6596   3.616   0.714   2.726
  348EMI    H07 6597   3.605   0.795   2.418
  348EMI    H09 6598   3.556   0.900   2.819
  348EMI    H08 6599   3.646   0.650   2.804
  348EMI    C05 6600   3.728   0.580   2.541
  348EMI    H0B 6601   3.744   0.594   2.436
  348EMI    H0C 6602   3.826   0.584   2.589
  348EMI    H0D 6603   3.685   0.483   2.562
  348EMI    N00 6604   3.644   0.688   2.593
  348EMI    C06 6605   3.518   1.020   2.570
  348EMI    H0F 6606   3.412   1.031   2.585
  348EMI    C0N 6607   3.595   1.127   2.646
  348EMI    H0O 6608   3.538   1.218   2.647
  348EMI    H0P 6609   3.619   1.101   2.748
  348EMI    H0Q 6610   3.688   1.149   2.594
  348EMI    N02 6611   3.557   0.884   2.605
  348EMI    H0E 6612   3.541   1.032   2.465
  349EMI    C01 6613   3.431   3.782   1.103
  349EMI    C04 6614   3.603   3.850   0.988
  349EMI    C03 6615   3.634   3.858   1.117
  349EMI    H07 6616   3.335   3.743   1.128
  349EMI    H09 6617   3.663   3.873   0.902
  349EMI    H08 6618   3.725   3.889   1.164
  349EMI    C05 6619   3.521   3.797   1.335
  349EMI    H0B 6620   3.457   3.714   1.359
  349EMI    H0C 6621   3.621   3.774   1.370
  349EMI    H0D 6622   3.485   3.888   1.380
  349EMI    N00 6623   3.526   3.814   1.189
  349EMI    C06 6624   3.402   3.760   0.857
  349EMI    H0F 6625   3.311   3.818   0.853
  349EMI    C0N 6626   3.483   3.785   0.731
  349EMI    H0O 6627   3.427   3.757   0.643
  349EMI    H0P 6628   3.510   3.889   0.722
  349EMI    H0Q 6629   3.574   3.726   0.731
  349EMI    N02 6630   3.475   3.798   0.980
  349EMI    H0E 6631   3.379   3.655   0.863
  350EMI    C01 6632   4.086   3.950   4.020
  350EMI    C04 6633   3.998   4.100   3.890
  350EMI    C03 6634   4.116   4.146   3.933
  350EMI    H07 6635   4.104   3.861   4.077
  350EMI    H09 6636   3.927   4.145   3.825
  350EMI    H08 6637   4.166   4.239   3.915
  350EMI    C05 6638   4.302   4.055   4.082
  350EMI    H0B 6639   4.366   3.974   4.053
  350EMI    H0C 6640   4.352   4.149   4.059
  350EMI    H0D 6641   4.288   4.051   4.189
  350EMI    N00 6642   4.171   4.050   4.015
  350EMI    C06 6643   3.862   3.888   3.927
  350EMI    H0F 6644   3.794   3.894   4.011
  350EMI    C0N 6645   3.788   3.920   3.799
  350EMI    H0O 6646   3.707   3.850   3.784
  350EMI    H0P 6647   3.745   4.019   3.796
  350EMI    H0Q 6648   3.854   3.910   3.715
  350EMI    N02 6649   3.978   3.977   3.950
  350EMI    H0E 6650   3.899   3.787   3.914
  351EMI    C01 6651   2.279   0.360   1.668
  351EMI    C04 6652   2.141   0.360   1.500
  351EMI    C03 6653   2.106   0.260   1.582
  351EMI    H07 6654   2.355   0.389   1.738
  351EMI    H09 6655   2.092   0.392   1.410
  351EMI    H08 6656   2.023   0.193   1.576
  351EMI    C05 6657   2.198   0.168   1.801
  351EMI    H0B 6658   2.225   0.225   1.889
  351EMI    H0C 6659   2.099   0.127   1.819
  351EMI    H0D 6660   2.270   0.088   1.789
  351EMI    N00 6661   2.196   0.260   1.687
  351EMI    C06 6662   2.305   0.555   1.514
  351EMI    H0F 6663   2.383   0.541   1.441
  351EMI    C0N 6664   2.201   0.649   1.461
  351EMI    H0O 6665   2.237   0.750   1.473
  351EMI    H0P 6666   2.180   0.632   1.356
  351EMI    H0Q 6667   2.108   0.643   1.516
  351EMI    N02 6668   2.249   0.424   1.557
  351EMI    H0E 6669   2.344   0.601   1.604
  352EMI    C01 6670   3.852   0.920   4.741
  352EMI    C04 6671   3.646   0.931   4.805
  352EMI    C03 6672   3.701   0.823   4.862
  352EMI    H07 6673   3.947   0.949   4.701
  352EMI    H09 6674   3.550   0.975   4.813
  352EMI    H08 6675   3.661   0.754   4.933
  352EMI    C05 6676   3.918   0.696   4.835
  352EMI    H0B 6677   4.012   0.709   4.782
  352EMI    H0C 6678   3.943   0.688   4.940
  352EMI    H0D 6679   3.874   0.604   4.802
  352EMI    N00 6680   3.828   0.811   4.812
  352EMI    C06 6681   3.720   1.107   4.638
  352EMI    H0F 6682   3.678   1.077   4.544
  352EMI    C0N 6683   3.637   1.218   4.700
  352EMI    H0O 6684   3.626   1.299   4.629
  352EMI    H0P 6685   3.538   1.185   4.729
  352EMI    H0Q 6686   3.688   1.259   4.786
  352EMI    N02 6687   3.741   0.988   4.723
  352EMI    H0E 6688   3.816   1.149   4.621
  353EMI    C01 6689   4.108   3.752   3.623
  353EMI    C04 6690   4.144   3.966   3.614
  353EMI    C03 6691   4.234   3.913   3.697
  353EMI    H07 6692   4.070   3.655   3.602
  353EMI    H09 6693   4.133   4.066   3.580
  353EMI    H08 6694   4.317   3.958   3.749
  353EMI    C05 6695   4.284   3.681   3.785
  353EMI    H0B 6696   4.349   3.623   3.721
  353EMI    H0C 6697   4.347   3.730   3.858
  353EMI    H0D 6698   4.217   3.611   3.833
  353EMI    N00 6699   4.209   3.778   3.704
  353EMI    C06 6700   3.954   3.876   3.469
  353EMI    H0F 6701   3.860   3.845   3.513
  353EMI    C0N 6702   3.941   4.017   3.414
  353EMI    H0O 6703   3.864   4.021   3.338
  353EMI    H0P 6704   3.917   4.088   3.491
  353EMI    H0Q 6705   4.034   4.046   3.365
  353EMI    N02 6706   4.065   3.863   3.567
  353EMI    H0E 6707   3.978   3.810   3.388
  354EMI    C01 6708   4.559   3.493   4.148
  354EMI    C04 6709   4.452   3.403   4.314
  354EMI    C03 6710   4.504   3.519   4.356
  354EMI    H07 6711   4.603   3.507   4.052
  354EMI    H09 6712   4.405   3.325   4.370
  354EMI    H08 6713   4.510   3.558   4.455
  354EMI    C05 6714   4.675   3.682   4.261
  354EMI    H0B 6715   4.724   3.700   4.167
  354EMI    H0C 6716   4.628   3.772   4.297
  354EMI    H0D 6717   4.753   3.653   4.331
  354EMI    N00 6718   4.579   3.571   4.252
  354EMI    C06 6719   4.475   3.263   4.103
  354EMI    H0F 6720   4.498   3.178   4.166
  354EMI    C0N 6721   4.338   3.253   4.038
  354EMI    H0O 6722   4.329   3.158   3.986
  354EMI    H0P 6723   4.261   3.255   4.113
  354EMI    H0Q 6724   4.321   3.333   3.967
  354EMI    N02 6725   4.494   3.384   4.184
  354EMI    H0E 6726   4.555   3.260   4.031
  355EMI    C01 6727   1.509   4.772   0.180
  355EMI    C04 6728   1.516   4.933   0.323
  355EMI    C03 6729   1.411   4.859   0.353
  355EMI    H07 6730   1.537   4.705   0.102
  355EMI    H09 6731   1.557   5.018   0.372
  355EMI    H08 6732   1.341   4.869   0.431
  355EMI    C05 6733   1.303   4.651   0.259
  355EMI    H0B 6734   1.321   4.587   0.176
  355EMI    H0C 6735   1.308   4.592   0.349
  355EMI    H0D 6736   1.205   4.697   0.253
  355EMI    N00 6737   1.406   4.756   0.261
  355EMI    C06 6738   1.689   4.945   0.144
  355EMI    H0F 6739   1.660   5.039   0.100
  355EMI    C0N 6740   1.802   4.963   0.243
  355EMI    H0O 6741   1.895   4.978   0.191
  355EMI    H0P 6742   1.784   0.004   0.306
  355EMI    H0Q 6743   1.812   4.876   0.307
  355EMI    N02 6744   1.572   4.884   0.209
  355EMI    H0E 6745   1.718   4.880   0.064
  356EMI    C01 6746   0.924   4.477   4.996
  356EMI    C04 6747   1.085   4.333   4.999
  356EMI    C03 6748   1.136   4.451   5.032
  356EMI    H07 6749   0.826   4.521   4.990
  356EMI    H09 6750   1.134   4.238   4.993
  356EMI    H08 6751   1.237   4.474   0.013
  356EMI    C05 6752   1.040   4.688   0.012
  356EMI    H0B 6753   0.987   4.709   0.104
  356EMI    H0C 6754   1.141   4.723   0.023
  356EMI    H0D 6755   0.991   4.746   4.980
  356EMI    N00 6756   1.033   4.543   5.028
  356EMI    C06 6757   0.851   4.242   4.957
  356EMI    H0F 6758   0.812   4.252   4.858
  356EMI    C0N 6759   0.910   4.102   4.968
  356EMI    H0O 6760   0.834   4.029   4.944
  356EMI    H0P 6761   0.991   4.090   4.899
  356EMI    H0Q 6762   0.944   4.077   0.022
  356EMI    N02 6763   0.950   4.349   4.981
  356EMI    H0E 6764   0.772   4.249   5.030
  357EMI    C01 6765   0.661   3.218   0.975
  357EMI    C04 6766   0.459   3.135   0.978
  357EMI    C03 6767   0.543   3.042   1.023
  357EMI    H07 6768   0.743   3.284   0.956
  357EMI    H09 6769   0.353   3.130   0.963
  357EMI    H08 6770   0.518   2.943   1.052
  357EMI    C05 6771   0.793   3.026   1.055
  357EMI    H0B 6772   0.848   3.084   1.127
  357EMI    H0C 6773   0.771   2.928   1.093
  357EMI    H0D 6774   0.852   3.019   0.965
  357EMI    N00 6775   0.669   3.096   1.022
  357EMI    C06 6776   0.483   3.372   0.894
  357EMI    H0F 6777   0.448   3.350   0.794
  357EMI    C0N 6778   0.378   3.434   0.983
  357EMI    H0O 6779   0.344   3.527   0.941
  357EMI    H0P 6780   0.292   3.368   0.991
  357EMI    H0Q 6781   0.417   3.451   1.083
  357EMI    N02 6782   0.535   3.245   0.947
  357EMI    H0E 6783   0.567   3.438   0.885
  358EMI    C01 6784   4.384   0.082   2.472
  358EMI    C04 6785   4.548   0.043   2.609
  358EMI    C03 6786   4.434   0.014   2.672
  358EMI    H07 6787   4.328   0.105   2.384
  358EMI    H09 6788   4.649   0.029   2.644
  358EMI    H08 6789   4.418   5.017   2.768
  358EMI    C05 6790   4.187   0.028   2.615
  358EMI    H0B 6791   4.136   0.003   2.523
  358EMI    H0C 6792   4.174   4.996   2.689
  358EMI    H0D 6793   4.148   0.121   2.653
  358EMI    N00 6794   4.331   0.042   2.586
  358EMI    C06 6795   4.609   0.128   2.377
  358EMI    H0F 6796   4.612   0.235   2.373
  358EMI    C0N 6797   4.748   0.072   2.394
  358EMI    H0O 6798   4.809   0.095   2.307
  358EMI    H0P 6799   4.798   0.112   2.482
  358EMI    H0Q 6800   4.745   5.009   2.404
  358EMI    N02 6801   4.515   0.089   2.484
  358EMI    H0E 6802   4.568   0.085   2.286
  359EMI    C01 6803   3.366   0.081   4.053
  359EMI    C04 6804   3.241   5.041   3.898
  359EMI    C03 6805   3.161   0.038   3.995
  359EMI    H07 6806   3.451   0.116   4.107
  359EMI    H09 6807   3.216   4.996   3.806
  359EMI    H08 6808   3.055   0.035   3.999
  359EMI    C05 6809   3.193   0.156   4.215
  359EMI    H0B 6810   3.176   0.262   4.200
  359EMI    H0C 6811   3.099   0.111   4.243
  359EMI    H0D 6812   3.265   0.141   4.293
  359EMI    N00 6813   3.241   0.094   4.092
  359EMI    C06 6814   3.487   5.030   3.854
  359EMI    H0F 6815   3.487   4.924   3.835
  359EMI    C0N 6816   3.489   0.066   3.726
  359EMI    H0O 6817   3.591   0.085   3.694
  359EMI    H0P 6818   3.439   0.013   3.646
  359EMI    H0Q 6819   3.441   0.161   3.740
  359EMI    N02 6820   3.370   0.019   3.937
  359EMI    H0E 6821   3.573   0.006   3.915
  360EMI    C01 6822   1.407   1.977   1.080
  360EMI    C04 6823   1.457   1.917   0.877
  360EMI    C03 6824   1.326   1.940   0.880
  360EMI    H07 6825   1.415   2.001   1.184
  360EMI    H09 6826   1.520   1.888   0.797
  360EMI    H08 6827   1.255   1.934   0.800
  360EMI    C05 6828   1.161   1.973   1.068
  360EMI    H0B 6829   1.168   1.959   1.174
  360EMI    H0C 6830   1.113   2.064   1.041
  360EMI    H0D 6831   1.105   1.892   1.026
  360EMI    N00 6832   1.295   1.967   1.012
  360EMI    C06 6833   1.649   1.940   1.042
  360EMI    H0F 6834   1.680   1.837   1.043
  360EMI    C0N 6835   1.741   2.022   0.955
  360EMI    H0O 6836   1.843   1.995   0.976
  360EMI    H0P 6837   1.725   2.002   0.850
  360EMI    H0Q 6838   1.729   2.128   0.975
  360EMI    N02 6839   1.507   1.944   1.003
  360EMI    H0E 6840   1.656   1.980   1.142
  361EMI    C01 6841   1.152   3.132   0.690
  361EMI    C04 6842   0.936   3.140   0.665
  361EMI    C03 6843   0.967   3.026   0.724
  361EMI    H07 6844   1.255   3.163   0.689
  361EMI    H09 6845   0.841   3.179   0.632
  361EMI    H08 6846   0.903   2.946   0.751
  361EMI    C05 6847   1.174   2.915   0.813
  361EMI    H0B 6848   1.279   2.937   0.809
  361EMI    H0C 6849   1.138   2.912   0.914
  361EMI    H0D 6850   1.152   2.822   0.763
  361EMI    N00 6851   1.102   3.023   0.743
  361EMI    C06 6852   1.065   3.333   0.574
  361EMI    H0F 6853   1.003   3.332   0.485
  361EMI    C0N 6854   1.018   3.433   0.676
  361EMI    H0O 6855   1.019   3.533   0.636
  361EMI    H0P 6856   0.918   3.405   0.704
  361EMI    H0Q 6857   1.075   3.429   0.768
  361EMI    N02 6858   1.054   3.204   0.640
  361EMI    H0E 6859   1.166   3.348   0.541
  362EMI    C01 6860   3.280   4.423   2.273
  362EMI    C04 6861   3.387   4.235   2.293
  362EMI    C03 6862   3.259   4.207   2.266
  362EMI    H07 6863   3.260   4.527   2.271
  362EMI    H09 6864   3.467   4.167   2.312
  362EMI    H08 6865   3.212   4.112   2.260
  362EMI    C05 6866   3.047   4.341   2.244
  362EMI    H0B 6867   3.021   4.424   2.182
  362EMI    H0C 6868   3.007   4.251   2.201
  362EMI    H0D 6869   3.007   4.354   2.344
  362EMI    N00 6870   3.192   4.326   2.258
  362EMI    C06 6871   3.524   4.447   2.313
  362EMI    H0F 6872   3.544   4.471   2.416
  362EMI    C0N 6873   3.637   4.373   2.250
  362EMI    H0O 6874   3.725   4.436   2.248
  362EMI    H0P 6875   3.661   4.283   2.305
  362EMI    H0Q 6876   3.610   4.348   2.149
  362EMI    N02 6877   3.398   4.372   2.299
  362EMI    H0E 6878   3.515   4.536   2.253
  363EMI    C01 6879   3.119   0.839   1.122
  363EMI    C04 6880   3.317   0.915   1.162
  363EMI    C03 6881   3.234   0.978   1.244
  363EMI    H07 6882   3.041   0.782   1.078
  363EMI    H09 6883   3.423   0.923   1.152
  363EMI    H08 6884   3.256   1.052   1.318
  363EMI    C05 6885   2.986   0.986   1.279
  363EMI    H0B 6886   2.930   0.910   1.330
  363EMI    H0C 6887   3.017   1.061   1.351
  363EMI    H0D 6888   2.929   1.037   1.203
  363EMI    N00 6889   3.108   0.931   1.217
  363EMI    C06 6890   3.307   0.743   0.982
  363EMI    H0F 6891   3.333   0.800   0.894
  363EMI    C0N 6892   3.428   0.672   1.038
  363EMI    H0O 6893   3.463   0.595   0.970
  363EMI    H0P 6894   3.511   0.738   1.056
  363EMI    H0Q 6895   3.406   0.624   1.133
  363EMI    N02 6896   3.245   0.831   1.084
  363EMI    H0E 6897   3.235   0.670   0.952
  364EMI    C01 6898   4.025   3.415   4.197
  364EMI    C04 6899   3.847   3.540   4.176
  364EMI    C03 6900   3.953   3.615   4.149
  364EMI    H07 6901   4.089   3.333   4.222
  364EMI    H09 6902   3.745   3.567   4.185
  364EMI    H08 6903   3.957   3.720   4.135
  364EMI    C05 6904   4.204   3.583   4.156
  364EMI    H0B 6905   4.267   3.500   4.129
  364EMI    H0C 6906   4.218   3.661   4.083
  364EMI    H0D 6907   4.236   3.617   4.254
  364EMI    N00 6908   4.066   3.536   4.163
  364EMI    C06 6909   3.811   3.301   4.254
  364EMI    H0F 6910   3.818   3.293   4.362
  364EMI    C0N 6911   3.665   3.321   4.213
  364EMI    H0O 6912   3.608   3.230   4.227
  364EMI    H0P 6913   3.622   3.397   4.275
  364EMI    H0Q 6914   3.654   3.353   4.110
  364EMI    N02 6915   3.894   3.415   4.211
  364EMI    H0E 6916   3.850   3.212   4.208
  365EMI    C01 6917   1.996   3.303   1.290
  365EMI    C04 6918   1.969   3.137   1.428
  365EMI    C03 6919   1.901   3.109   1.317
  365EMI    H07 6920   2.024   3.398   1.247
  365EMI    H09 6921   1.976   3.081   1.520
  365EMI    H08 6922   1.836   3.028   1.295
  365EMI    C05 6923   1.858   3.231   1.100
  365EMI    H0B 6924   1.906   3.312   1.048
  365EMI    H0C 6925   1.864   3.142   1.041
  365EMI    H0D 6926   1.757   3.259   1.118
  365EMI    N00 6927   1.921   3.214   1.230
  365EMI    C06 6928   2.102   3.338   1.510
  365EMI    H0F 6929   2.033   3.404   1.557
  365EMI    C0N 6930   2.165   3.250   1.614
  365EMI    H0O 6931   2.228   3.305   1.681
  365EMI    H0P 6932   2.087   3.205   1.675
  365EMI    H0Q 6933   2.225   3.172   1.569
  365EMI    N02 6934   2.024   3.263   1.411
  365EMI    H0E 6935   2.181   3.390   1.458
  366EMI    C01 6936   4.348   0.546   2.713
  366EMI    C04 6937   4.412   0.635   2.901
  366EMI    C03 6938   4.402   0.503   2.919
  366EMI    H07 6939   4.320   0.534   2.610
  366EMI    H09 6940   4.443   0.709   2.969
  366EMI    H08 6941   4.419   0.441   3.005
  366EMI    C05 6942   4.363   0.306   2.769
  366EMI    H0B 6943   4.400   0.287   2.671
  366EMI    H0C 6944   4.420   0.251   2.842
  366EMI    H0D 6945   4.260   0.275   2.772
  366EMI    N00 6946   4.368   0.448   2.798
  366EMI    C06 6947   4.374   0.790   2.705
  366EMI    H0F 6948   4.276   0.833   2.702
  366EMI    C0N 6949   4.479   0.885   2.755
  366EMI    H0O 6950   4.480   0.972   2.691
  366EMI    H0P 6951   4.459   0.916   2.857
  366EMI    H0Q 6952   4.576   0.838   2.751
  366EMI    N02 6953   4.370   0.660   2.772
  366EMI    H0E 6954   4.405   0.763   2.607
  367EMI    C01 6955   0.706   2.487   1.150
  367EMI    C04 6956   0.586   2.389   1.304
  367EMI    C03 6957   0.547   2.516   1.295
  367EMI    H07 6958   0.772   2.505   1.068
  367EMI    H09 6959   0.547   2.312   1.366
  367EMI    H08 6960   0.469   2.571   1.344
  367EMI    C05 6961   0.621   2.719   1.167
  367EMI    H0B 6962   0.646   2.733   1.064
  367EMI    H0C 6963   0.520   2.755   1.179
  367EMI    H0D 6964   0.684   2.777   1.233
  367EMI    N00 6965   0.626   2.578   1.201
  367EMI    C06 6966   0.772   2.253   1.195
  367EMI    H0F 6967   0.865   2.272   1.244
  367EMI    C0N 6968   0.715   2.126   1.253
  367EMI    H0O 6969   0.776   2.041   1.224
  367EMI    H0P 6970   0.716   2.132   1.360
  367EMI    H0Q 6971   0.614   2.110   1.218
  367EMI    N02 6972   0.692   2.374   1.216
  367EMI    H0E 6973   0.783   2.240   1.089
  368EMI    C01 6974   2.016   2.459   4.694
  368EMI    C04 6975   2.064   2.636   4.813
  368EMI    C03 6976   2.091   2.663   4.686
  368EMI    H07 6977   1.983   2.362   4.664
  368EMI    H09 6978   2.071   2.703   4.896
  368EMI    H08 6979   2.125   2.753   4.643
  368EMI    C05 6980   2.097   2.533   4.471
  368EMI    H0B 6981   2.019   2.479   4.421
  368EMI    H0C 6982   2.108   2.627   4.422
  368EMI    H0D 6983   2.193   2.485   4.461
  368EMI    N00 6984   2.067   2.549   4.613
  368EMI    C06 6985   1.956   2.445   4.935
  368EMI    H0F 6986   2.026   2.375   4.980
  368EMI    C0N 6987   1.917   2.555   5.032
  368EMI    H0O 6988   1.850   2.517   0.063
  368EMI    H0P 6989   2.003   2.595   0.038
  368EMI    H0Q 6990   1.865   2.635   4.982
  368EMI    N02 6991   2.017   2.507   4.817
  368EMI    H0E 6992   1.866   2.394   4.902
  369EMI    C01 6993   0.488   4.385   2.805
  369EMI    C04 6994   0.349   4.224   2.842
  369EMI    C03 6995   0.470   4.170   2.827
  369EMI    H07 6996   0.528   4.483   2.797
  369EMI    H09 6997   0.255   4.178   2.865
  369EMI    H08 6998   0.499   4.067   2.835
  369EMI    C05 6999   0.703   4.263   2.787
  369EMI    H0B 7000   0.753   4.340   2.842
  369EMI    H0C 7001   0.735   4.164   2.818
  369EMI    H0D 7002   0.728   4.275   2.682
  369EMI    N00 7003   0.558   4.273   2.803
  369EMI    C06 7004   0.248   4.455   2.816
  369EMI    H0F 7005   0.199   4.453   2.720
  369EMI    C0N 7006   0.150   4.433   2.930
  369EMI    H0O 7007   0.074   4.511   2.927
  369EMI    H0P 7008   0.099   4.338   2.920
  369EMI    H0Q 7009   0.199   4.437   3.026
  369EMI    N02 7010   0.360   4.358   2.816
  369EMI    H0E 7011   0.293   4.553   2.828
  370EMI    C01 7012   2.801   2.047   2.360
  370EMI    C04 7013   2.675   1.898   2.264
  370EMI    C03 7014   2.655   2.014   2.201
  370EMI    H07 7015   2.876   2.091   2.423
  370EMI    H09 7016   2.634   1.802   2.243
  370EMI    H08 7017   2.595   2.035   2.114
  370EMI    C05 7018   2.758   2.246   2.215
  370EMI    H0B 7019   2.859   2.278   2.236
  370EMI    H0C 7020   2.741   2.251   2.108
  370EMI    H0D 7021   2.688   2.310   2.266
  370EMI    N00 7022   2.739   2.107   2.260
  370EMI    C06 7023   2.815   1.819   2.460
  370EMI    H0F 7024   2.744   1.795   2.539
  370EMI    C0N 7025   2.851   1.694   2.385
  370EMI    H0O 7026   2.905   1.626   2.450
  370EMI    H0P 7027   2.763   1.641   2.349
  370EMI    H0Q 7028   2.914   1.719   2.301
  370EMI    N02 7029   2.762   1.922   2.369
  370EMI    H0E 7030   2.907   1.856   2.503
  371EMI    C01 7031   0.559   0.696   4.786
  371EMI    C04 7032   0.374   0.719   4.897
  371EMI    C03 7033   0.393   0.589   4.875
  371EMI    H07 7034   0.645   0.720   4.727
  371EMI    H09 7035   0.292   0.769   4.943
  371EMI    H08 7036   0.330   0.504   4.896
  371EMI    C05 7037   0.568   0.450   4.758
  371EMI    H0B 7038   0.642   0.464   4.681
  371EMI    H0C 7039   0.608   0.390   4.838
  371EMI    H0D 7040   0.486   0.396   4.715
  371EMI    N00 7041   0.512   0.575   4.808
  371EMI    C06 7042   0.513   0.928   4.860
  371EMI    H0F 7043   0.420   0.980   4.870
  371EMI    C0N 7044   0.603   0.945   4.981
  371EMI    H0O 7045   0.594   1.045   5.020
  371EMI    H0P 7046   0.575   0.873   0.013
  371EMI    H0Q 7047   0.706   0.927   4.956
  371EMI    N02 7048   0.482   0.785   4.844
  371EMI    H0E 7049   0.555   0.969   4.769
  372EMI    C01 7050   3.564   4.937   0.592
  372EMI    C04 7051   3.383   4.892   0.482
  372EMI    C03 7052   3.349   4.914   0.609
  372EMI    H07 7053   3.667   4.954   0.617
  372EMI    H09 7054   3.321   4.867   0.398
  372EMI    H08 7055   3.254   4.910   0.658
  372EMI    C05 7056   3.473   4.996   0.814
  372EMI    H0B 7057   3.576   4.995   0.847
  372EMI    H0C 7058   3.432   0.050   0.819
  372EMI    H0D 7059   3.418   4.931   0.880
  372EMI    N00 7060   3.464   4.947   0.677
  372EMI    C06 7061   3.597   4.916   0.347
  372EMI    H0F 7062   3.656   4.827   0.333
  372EMI    C0N 7063   3.509   4.946   0.227
  372EMI    H0O 7064   3.571   4.970   0.142
  372EMI    H0P 7065   3.449   4.860   0.200
  372EMI    H0Q 7066   3.444   5.031   0.245
  372EMI    N02 7067   3.520   4.908   0.472
  372EMI    H0E 7068   3.663   5.002   0.358
  373EMI    C01 7069   2.732   4.697   2.058
  373EMI    C04 7070   2.553   4.720   2.178
  373EMI    C03 7071   2.573   4.835   2.115
  373EMI    H07 7072   2.817   4.655   2.008
  373EMI    H09 7073   2.473   4.695   2.243
  373EMI    H08 7074   2.514   4.923   2.118
  373EMI    C05 7075   2.751   4.925   1.961
  373EMI    H0B 7076   2.762   4.889   1.860
  373EMI    H0C 7077   2.690   5.014   1.960
  373EMI    H0D 7078   2.848   4.950   2.001
  373EMI    N00 7079   2.690   4.821   2.044
  373EMI    C06 7080   2.656   4.489   2.178
  373EMI    H0F 7081   2.705   4.474   2.272
  373EMI    C0N 7082   2.516   4.430   2.182
  373EMI    H0O 7083   2.520   4.322   2.184
  373EMI    H0P 7084   2.463   4.461   2.271
  373EMI    H0Q 7085   2.457   4.464   2.099
  373EMI    N02 7086   2.653   4.633   2.143
  373EMI    H0E 7087   2.712   4.438   2.102
  374EMI    C01 7088   0.802   3.070   4.766
  374EMI    C04 7089   0.590   3.048   4.807
  374EMI    C03 7090   0.620   2.969   4.705
  374EMI    H07 7091   0.904   3.101   4.773
  374EMI    H09 7092   0.495   3.064   4.854
  374EMI    H08 7093   0.554   2.905   4.649
  374EMI    C05 7094   0.828   2.918   4.570
  374EMI    H0B 7095   0.929   2.898   4.602
  374EMI    H0C 7096   0.778   2.826   4.544
  374EMI    H0D 7097   0.829   2.984   4.485
  374EMI    N00 7098   0.754   2.985   4.678
  374EMI    C06 7099   0.717   3.201   4.962
  374EMI    H0F 7100   0.677   3.298   4.939
  374EMI    C0N 7101   0.646   3.140   0.037
  374EMI    H0O 7102   0.674   3.191   0.128
  374EMI    H0P 7103   0.538   3.150   0.026
  374EMI    H0Q 7104   0.669   3.035   0.047
  374EMI    N02 7105   0.705   3.114   4.844
  374EMI    H0E 7106   0.822   3.209   4.986
  375EMI    C01 7107   1.050   1.683   0.884
  375EMI    C04 7108   1.138   1.606   1.068
  375EMI    C03 7109   1.221   1.581   0.968
  375EMI    H07 7110   0.987   1.733   0.814
  375EMI    H09 7111   1.150   1.584   1.171
  375EMI    H08 7112   1.315   1.531   0.967
  375EMI    C05 7113   1.241   1.651   0.726
  375EMI    H0B 7114   1.202   1.732   0.666
  375EMI    H0C 7115   1.346   1.672   0.744
  375EMI    H0D 7116   1.234   1.558   0.672
  375EMI    N00 7117   1.170   1.639   0.854
  375EMI    C06 7118   0.896   1.674   1.084
  375EMI    H0F 7119   0.857   1.575   1.100
  375EMI    C0N 7120   0.908   1.752   1.215
  375EMI    H0O 7121   0.812   1.771   1.259
  375EMI    H0P 7122   0.969   1.698   1.287
  375EMI    H0Q 7123   0.955   1.848   1.199
  375EMI    N02 7124   1.023   1.655   1.011
  375EMI    H0E 7125   0.832   1.727   1.016
  376EMI    C01 7126   4.139   3.929   1.265
  376EMI    C04 7127   4.264   4.101   1.228
  376EMI    C03 7128   4.170   4.099   1.133
  376EMI    H07 7129   4.100   3.840   1.311
  376EMI    H09 7130   4.347   4.167   1.242
  376EMI    H08 7131   4.159   4.164   1.050
  376EMI    C05 7132   3.989   3.930   1.071
  376EMI    H0B 7133   3.946   3.845   1.121
  376EMI    H0C 7134   3.915   4.005   1.048
  376EMI    H0D 7135   4.036   3.895   0.980
  376EMI    N00 7136   4.095   3.985   1.156
  376EMI    C06 7137   4.338   3.944   1.413
  376EMI    H0F 7138   4.422   3.891   1.370
  376EMI    C0N 7139   4.380   4.061   1.498
  376EMI    H0O 7140   4.412   4.023   1.594
  376EMI    H0P 7141   4.463   4.114   1.452
  376EMI    H0Q 7142   4.299   4.130   1.515
  376EMI    N02 7143   4.249   3.988   1.304
  376EMI    H0E 7144   4.282   3.875   1.474
  377EMI    C01 7145   2.765   4.693   0.442
  377EMI    C04 7146   2.647   4.701   0.260
  377EMI    C03 7147   2.648   4.823   0.314
  377EMI    H07 7148   2.831   4.661   0.520
  377EMI    H09 7149   2.604   4.668   0.167
  377EMI    H08 7150   2.608   4.914   0.275
  377EMI    C05 7151   2.745   4.925   0.524
  377EMI    H0B 7152   2.842   4.911   0.572
  377EMI    H0C 7153   2.748   5.019   0.471
  377EMI    H0D 7154   2.667   4.926   0.598
  377EMI    N00 7155   2.722   4.816   0.430
  377EMI    C06 7156   2.741   4.473   0.326
  377EMI    H0F 7157   2.757   4.428   0.422
  377EMI    C0N 7158   2.626   4.399   0.265
  377EMI    H0O 7159   2.662   4.328   0.191
  377EMI    H0P 7160   2.575   4.342   0.341
  377EMI    H0Q 7161   2.554   4.462   0.216
  377EMI    N02 7162   2.721   4.619   0.343
  377EMI    H0E 7163   2.830   4.459   0.267
  378EMI    C01 7164   1.126   1.301   1.853
  378EMI    C04 7165   1.057   1.361   1.656
  378EMI    C03 7166   1.015   1.451   1.744
  378EMI    H07 7167   1.179   1.253   1.931
  378EMI    H09 7168   1.055   1.366   1.550
  378EMI    H08 7169   0.971   1.547   1.729
  378EMI    C05 7170   1.006   1.460   1.995
  378EMI    H0B 7171   1.053   1.406   2.076
  378EMI    H0C 7172   1.036   1.564   1.998
  378EMI    H0D 7173   0.899   1.451   2.008
  378EMI    N00 7174   1.047   1.404   1.869
  378EMI    C06 7175   1.213   1.162   1.669
  378EMI    H0F 7176   1.167   1.065   1.675
  378EMI    C0N 7177   1.255   1.199   1.529
  378EMI    H0O 7178   1.330   1.131   1.490
  378EMI    H0P 7179   1.171   1.199   1.462
  378EMI    H0Q 7180   1.298   1.298   1.527
  378EMI    N02 7181   1.127   1.266   1.727
  378EMI    H0E 7182   1.298   1.164   1.734
  379EMI    C01 7183   2.178   3.872   4.632
  379EMI    C04 7184   2.316   3.705   4.626
  379EMI    C03 7185   2.365   3.796   4.709
  379EMI    H07 7186   2.091   3.932   4.617
  379EMI    H09 7187   2.358   3.611   4.596
  379EMI    H08 7188   2.457   3.788   4.762
  379EMI    C05 7189   2.316   4.044   4.749
  379EMI    H0B 7190   2.226   4.091   4.787
  379EMI    H0C 7191   2.393   4.042   4.824
  379EMI    H0D 7192   2.351   4.103   4.666
  379EMI    N00 7193   2.285   3.908   4.699
  379EMI    C06 7194   2.097   3.669   4.513
  379EMI    H0F 7195   2.151   3.596   4.455
  379EMI    C0N 7196   2.016   3.607   4.623
  379EMI    H0O 7197   1.949   3.530   4.591
  379EMI    H0P 7198   2.086   3.560   4.690
  379EMI    H0Q 7199   1.958   3.681   4.677
  379EMI    N02 7200   2.197   3.753   4.580
  379EMI    H0E 7201   2.042   3.726   4.440
  380EMI    C01 7202   2.680   1.163   4.333
  380EMI    C04 7203   2.843   1.029   4.379
  380EMI    C03 7204   2.892   1.132   4.310
  380EMI    H07 7205   2.583   1.207   4.329
  380EMI    H09 7206   2.895   0.949   4.427
  380EMI    H08 7207   2.995   1.153   4.288
  380EMI    C05 7208   2.786   1.322   4.175
  380EMI    H0B 7209   2.685   1.353   4.156
  380EMI    H0C 7210   2.841   1.405   4.215
  380EMI    H0D 7211   2.833   1.290   4.084
  380EMI    N00 7212   2.786   1.211   4.273
  380EMI    C06 7213   2.607   0.951   4.438
  380EMI    H0F 7214   2.598   0.869   4.368
  380EMI    C0N 7215   2.635   0.901   4.577
  380EMI    H0O 7216   2.559   0.832   4.610
  380EMI    H0P 7217   2.732   0.852   4.584
  380EMI    H0Q 7218   2.635   0.983   4.646
  380EMI    N02 7219   2.706   1.046   4.385
  380EMI    H0E 7220   2.513   1.003   4.443
  381EMI    C01 7221   2.046   4.278   2.555
  381EMI    C04 7222   2.065   4.263   2.338
  381EMI    C03 7223   2.113   4.151   2.392
  381EMI    H07 7224   2.026   4.319   2.652
  381EMI    H09 7225   2.059   4.294   2.237
  381EMI    H08 7226   2.156   4.066   2.347
  381EMI    C05 7227   2.148   4.057   2.621
  381EMI    H0B 7228   2.111   4.075   2.720
  381EMI    H0C 7229   2.116   3.959   2.587
  381EMI    H0D 7230   2.257   4.057   2.620
  381EMI    N00 7231   2.100   4.160   2.528
  381EMI    C06 7232   1.982   4.483   2.422
  381EMI    H0F 7233   2.064   4.543   2.388
  381EMI    C0N 7234   1.864   4.492   2.328
  381EMI    H0O 7235   1.834   4.596   2.317
  381EMI    H0P 7236   1.888   4.455   2.230
  381EMI    H0Q 7237   1.780   4.438   2.368
  381EMI    N02 7238   2.029   4.345   2.442
  381EMI    H0E 7239   1.958   4.523   2.519
  382EMI    C01 7240   4.813   2.308   1.948
  382EMI    C04 7241   4.792   2.173   1.780
  382EMI    C03 7242   4.896   2.253   1.755
  382EMI    H07 7243   4.810   2.346   2.047
  382EMI    H09 7244   4.757   2.090   1.722
  382EMI    H08 7245   4.966   2.252   1.674
  382EMI    C05 7246   5.007   2.443   1.885
  382EMI    H0B 7247   4.980   2.496   1.975
  382EMI    H0C 7248   0.058   2.400   1.908
  382EMI    H0D 7249   5.011   2.513   1.804
  382EMI    N00 7250   4.907   2.339   1.862
  382EMI    C06 7251   4.623   2.153   1.971
  382EMI    H0F 7252   4.545   2.227   1.974
  382EMI    C0N 7253   4.571   2.025   1.906
  382EMI    H0O 7254   4.496   1.978   1.969
  382EMI    H0P 7255   4.527   2.045   1.809
  382EMI    H0Q 7256   4.651   1.953   1.892
  382EMI    N02 7257   4.736   2.214   1.899
  382EMI    H0E 7258   4.660   2.130   2.071
  383EMI    C01 7259   4.407   2.123   2.815
  383EMI    C04 7260   4.383   2.121   3.031
  383EMI    C03 7261   4.388   2.248   2.991
  383EMI    H07 7262   4.426   2.092   2.715
  383EMI    H09 7263   4.374   2.083   3.131
  383EMI    H08 7264   4.391   2.338   3.050
  383EMI    C05 7265   4.402   2.367   2.765
  383EMI    H0B 7266   4.310   2.380   2.712
  383EMI    H0C 7267   4.424   2.454   2.825
  383EMI    H0D 7268   4.483   2.355   2.694
  383EMI    N00 7269   4.398   2.248   2.854
  383EMI    C06 7270   4.426   1.896   2.915
  383EMI    H0F 7271   4.526   1.877   2.948
  383EMI    C0N 7272   4.331   1.813   2.998
  383EMI    H0O 7273   4.350   1.707   2.988
  383EMI    H0P 7274   4.342   1.838   3.103
  383EMI    H0Q 7275   4.229   1.832   2.968
  383EMI    N02 7276   4.404   2.042   2.919
  383EMI    H0E 7277   4.414   1.867   2.812
  384EMI    C01 7278   4.777   1.523   0.882
  384EMI    C04 7279   4.929   1.676   0.856
  384EMI    C03 7280   4.846   1.681   0.751
  384EMI    H07 7281   4.715   1.445   0.922
  384EMI    H09 7282   5.009   1.742   0.878
  384EMI    H08 7283   4.840   1.750   0.670
  384EMI    C05 7284   4.630   1.567   0.689
  384EMI    H0B 7285   4.548   1.600   0.751
  384EMI    H0C 7286   4.631   1.629   0.601
  384EMI    H0D 7287   4.614   1.463   0.663
  384EMI    N00 7288   4.750   1.585   0.770
  384EMI    C06 7289   4.934   1.545   1.075
  384EMI    H0F 7290   5.020   1.482   1.063
  384EMI    C0N 7291   4.963   1.666   1.163
  384EMI    H0O 7292   5.026   1.641   1.246
  384EMI    H0P 7293   5.006   1.747   1.106
  384EMI    H0Q 7294   4.872   1.706   1.204
  384EMI    N02 7295   4.882   1.577   0.940
  384EMI    H0E 7296   4.855   1.489   1.122
  385EMI    C01 7297   2.978   2.891   2.817
  385EMI    C04 7298   3.144   2.755   2.852
  385EMI    C03 7299   3.038   2.707   2.917
  385EMI    H07 7300   2.922   2.978   2.789
  385EMI    H09 7301   3.245   2.721   2.850
  385EMI    H08 7302   3.028   2.623   2.982
  385EMI    C05 7303   2.806   2.789   2.963
  385EMI    H0B 7304   2.757   2.885   2.955
  385EMI    H0C 7305   2.748   2.712   2.918
  385EMI    H0D 7306   2.818   2.766   3.068
  385EMI    N00 7307   2.936   2.797   2.898
  385EMI    C06 7308   3.195   2.955   2.709
  385EMI    H0F 7309   3.271   2.995   2.775
  385EMI    C0N 7310   3.257   2.877   2.595
  385EMI    H0O 7311   3.335   2.936   2.551
  385EMI    H0P 7312   3.303   2.785   2.630
  385EMI    H0Q 7313   3.184   2.854   2.520
  385EMI    N02 7314   3.105   2.872   2.790
  385EMI    H0E 7315   3.140   3.041   2.674
  386EMI    C01 7316   3.969   1.018   3.557
  386EMI    C04 7317   3.760   1.072   3.562
  386EMI    C03 7318   3.780   1.000   3.452
  386EMI    H07 7319   4.070   1.005   3.585
  386EMI    H09 7320   3.671   1.116   3.598
  386EMI    H08 7321   3.709   0.967   3.379
  386EMI    C05 7322   3.984   0.906   3.338
  386EMI    H0B 7323   4.089   0.903   3.363
  386EMI    H0C 7324   3.948   0.804   3.326
  386EMI    H0D 7325   3.971   0.961   3.247
  386EMI    N00 7326   3.914   0.972   3.447
  386EMI    C06 7327   3.906   1.155   3.755
  386EMI    H0F 7328   3.940   1.255   3.733
  386EMI    C0N 7329   3.782   1.157   3.843
  386EMI    H0O 7330   3.795   1.232   3.919
  386EMI    H0P 7331   3.692   1.188   3.792
  386EMI    H0Q 7332   3.766   1.061   3.890
  386EMI    N02 7333   3.881   1.086   3.626
  386EMI    H0E 7334   3.985   1.102   3.807
  387EMI    C01 7335   1.090   0.323   2.078
  387EMI    C04 7336   1.073   0.153   1.944
  387EMI    C03 7337   1.196   0.152   1.996
  387EMI    H07 7338   1.067   0.411   2.134
  387EMI    H09 7339   1.027   0.081   1.879
  387EMI    H08 7340   1.275   0.081   1.983
  387EMI    C05 7341   1.329   0.307   2.140
  387EMI    H0B 7342   1.310   0.393   2.202
  387EMI    H0C 7343   1.369   0.227   2.201
  387EMI    H0D 7344   1.402   0.333   2.064
  387EMI    N00 7345   1.207   0.263   2.076
  387EMI    C06 7346   0.864   0.288   1.975
  387EMI    H0F 7347   0.857   0.317   1.873
  387EMI    C0N 7348   0.772   0.171   2.000
  387EMI    H0O 7349   0.669   0.197   1.979
  387EMI    H0P 7350   0.799   0.088   1.937
  387EMI    H0Q 7351   0.779   0.139   2.103
  387EMI    N02 7352   1.006   0.258   2.000
  387EMI    H0E 7353   0.837   0.372   2.036
  388EMI    C01 7354   0.453   3.872   1.105
  388EMI    C04 7355   0.649   3.963   1.076
  388EMI    C03 7356   0.572   4.050   1.141
  388EMI    H07 7357   0.369   3.806   1.096
  388EMI    H09 7358   0.747   3.977   1.036
  388EMI    H08 7359   0.591   4.152   1.167
  388EMI    C05 7360   0.327   4.067   1.196
  388EMI    H0B 7361   0.244   4.001   1.213
  388EMI    H0C 7362   0.346   4.126   1.284
  388EMI    H0D 7363   0.300   4.136   1.117
  388EMI    N00 7364   0.447   3.994   1.155
  388EMI    C06 7365   0.619   3.732   0.980
  388EMI    H0F 7366   0.619   3.749   0.873
  388EMI    C0N 7367   0.754   3.692   1.033
  388EMI    H0O 7368   0.773   3.586   1.019
  388EMI    H0P 7369   0.833   3.748   0.984
  388EMI    H0Q 7370   0.758   3.715   1.138
  388EMI    N02 7371   0.571   3.853   1.050
  388EMI    H0E 7372   0.548   3.654   1.001
  389EMI    C01 7373   2.884   3.041   4.205
  389EMI    C04 7374   2.957   3.050   4.000
  389EMI    C03 7375   2.948   2.923   4.034
  389EMI    H07 7376   2.843   3.068   4.300
  389EMI    H09 7377   2.983   3.094   3.907
  389EMI    H08 7378   2.965   2.836   3.976
  389EMI    C05 7379   2.877   2.793   4.237
  389EMI    H0B 7380   2.883   2.814   4.343
  389EMI    H0C 7381   2.777   2.756   4.217
  389EMI    H0D 7382   2.950   2.718   4.211
  389EMI    N00 7383   2.902   2.917   4.164
  389EMI    C06 7384   2.924   3.271   4.112
  389EMI    H0F 7385   3.025   3.306   4.126
  389EMI    C0N 7386   2.863   3.324   3.983
  389EMI    H0O 7387   2.821   3.423   3.997
  389EMI    H0P 7388   2.937   3.329   3.905
  389EMI    H0Q 7389   2.781   3.261   3.950
  389EMI    N02 7390   2.925   3.124   4.111
  389EMI    H0E 7391   2.862   3.303   4.195
  390EMI    C01 7392   3.397   0.248   2.381
  390EMI    C04 7393   3.425   0.462   2.379
  390EMI    C03 7394   3.541   0.404   2.351
  390EMI    H07 7395   3.349   0.154   2.388
  390EMI    H09 7396   3.401   0.566   2.381
  390EMI    H08 7397   3.636   0.446   2.324
  390EMI    C05 7398   3.633   0.171   2.331
  390EMI    H0B 7399   3.606   0.098   2.256
  390EMI    H0C 7400   3.720   0.223   2.291
  390EMI    H0D 7401   3.664   0.123   2.422
  390EMI    N00 7402   3.525   0.269   2.354
  390EMI    C06 7403   3.187   0.379   2.419
  390EMI    H0F 7404   3.170   0.452   2.495
  390EMI    C0N 7405   3.107   0.411   2.296
  390EMI    H0O 7406   3.002   0.411   2.322
  390EMI    H0P 7407   3.133   0.508   2.255
  390EMI    H0Q 7408   3.123   0.335   2.222
  390EMI    N02 7409   3.333   0.361   2.395
  390EMI    H0E 7410   3.151   0.286   2.459
  391EMI    C01 7411   2.175   4.804   0.891
  391EMI    C04 7412   2.170   4.996   0.789
  391EMI    C03 7413   2.262   4.920   0.729
  391EMI    H07 7414   2.144   4.722   0.952
  391EMI    H09 7415   2.133   0.048   0.763
  391EMI    H08 7416   2.319   4.943   0.642
  391EMI    C05 7417   2.330   4.676   0.752
  391EMI    H0B 7418   2.254   4.612   0.709
  391EMI    H0C 7419   2.405   4.699   0.679
  391EMI    H0D 7420   2.373   4.627   0.838
  391EMI    N00 7421   2.262   4.798   0.794
  391EMI    C06 7422   2.001   4.956   0.976
  391EMI    H0F 7423   2.036   5.021   1.052
  391EMI    C0N 7424   1.886   5.016   0.899
  391EMI    H0O 7425   1.803   5.039   0.965
  391EMI    H0P 7426   1.915   0.063   0.850
  391EMI    H0Q 7427   1.848   4.948   0.825
  391EMI    N02 7428   2.116   4.921   0.892
  391EMI    H0E 7429   1.961   4.865   1.019
  392EMI    C01 7430   4.360   2.676   0.847
  392EMI    C04 7431   4.544   2.629   0.953
  392EMI    C03 7432   4.473   2.713   1.028
  392EMI    H07 7433   4.280   2.673   0.776
  392EMI    H09 7434   4.640   2.584   0.970
  392EMI    H08 7435   4.495   2.757   1.123
  392EMI    C05 7436   4.264   2.850   0.999
  392EMI    H0B 7437   4.163   2.814   0.997
  392EMI    H0C 7438   4.289   2.881   1.099
  392EMI    H0D 7439   4.269   2.937   0.935
  392EMI    N00 7440   4.362   2.749   0.956
  392EMI    C06 7441   4.500   2.494   0.746
  392EMI    H0F 7442   4.578   2.525   0.679
  392EMI    C0N 7443   4.540   2.367   0.819
  392EMI    H0O 7444   4.546   2.283   0.751
  392EMI    H0P 7445   4.637   2.380   0.866
  392EMI    H0Q 7446   4.468   2.342   0.896
  392EMI    N02 7447   4.470   2.602   0.841
  392EMI    H0E 7448   4.409   2.473   0.693
  393EMI    C01 7449   4.277   1.732   3.450
  393EMI    C04 7450   4.298   1.523   3.501
  393EMI    C03 7451   4.414   1.564   3.450
  393EMI    H07 7452   4.236   1.830   3.437
  393EMI    H09 7453   4.272   1.429   3.544
  393EMI    H08 7454   4.507   1.511   3.445
  393EMI    C05 7455   4.508   1.788   3.382
  393EMI    H0B 7456   4.475   1.891   3.392
  393EMI    H0C 7457   4.591   1.775   3.450
  393EMI    H0D 7458   4.538   1.768   3.280
  393EMI    N00 7459   4.401   1.698   3.423
  393EMI    C06 7460   4.089   1.640   3.585
  393EMI    H0F 7461   4.006   1.629   3.518
  393EMI    C0N 7462   4.083   1.537   3.697
  393EMI    H0O 7463   3.989   1.543   3.750
  393EMI    H0P 7464   4.092   1.436   3.661
  393EMI    H0Q 7465   4.161   1.556   3.770
  393EMI    N02 7466   4.214   1.632   3.507
  393EMI    H0E 7467   4.087   1.738   3.630
  394EMI    C01 7468   1.463   3.908   0.271
  394EMI    C04 7469   1.529   3.955   0.471
  394EMI    C03 7470   1.634   3.969   0.392
  394EMI    H07 7471   1.399   3.888   0.188
  394EMI    H09 7472   1.519   3.976   0.574
  394EMI    H08 7473   1.729   4.009   0.417
  394EMI    C05 7474   1.677   3.937   0.146
  394EMI    H0B 7475   1.616   3.908   0.063
  394EMI    H0C 7476   1.710   4.039   0.128
  394EMI    H0D 7477   1.761   3.870   0.156
  394EMI    N00 7478   1.592   3.935   0.265
  394EMI    C06 7479   1.290   3.875   0.451
  394EMI    H0F 7480   1.272   3.769   0.452
  394EMI    C0N 7481   1.274   3.924   0.593
  394EMI    H0O 7482   1.169   3.917   0.617
  394EMI    H0P 7483   1.328   3.866   0.666
  394EMI    H0Q 7484   1.301   4.029   0.604
  394EMI    N02 7485   1.423   3.909   0.396
  394EMI    H0E 7486   1.215   3.925   0.393
  395EMI    C01 7487   1.939   3.337   2.132
  395EMI    C04 7488   1.941   3.537   2.216
  395EMI    C03 7489   2.061   3.512   2.166
  395EMI    H07 7490   1.910   3.239   2.101
  395EMI    H09 7491   1.908   3.621   2.272
  395EMI    H08 7492   2.152   3.566   2.170
  395EMI    C05 7493   2.176   3.322   2.053
  395EMI    H0B 7494   2.168   3.324   1.945
  395EMI    H0C 7495   2.267   3.371   2.083
  395EMI    H0D 7496   2.179   3.219   2.087
  395EMI    N00 7497   2.060   3.386   2.114
  395EMI    C06 7498   1.719   3.416   2.231
  395EMI    H0F 7499   1.701   3.346   2.311
  395EMI    C0N 7500   1.664   3.548   2.276
  395EMI    H0O 7501   1.557   3.539   2.292
  395EMI    H0P 7502   1.707   3.579   2.370
  395EMI    H0Q 7503   1.679   3.625   2.201
  395EMI    N02 7504   1.863   3.425   2.195
  395EMI    H0E 7505   1.663   3.388   2.145
  396EMI    C01 7506   4.374   2.442   1.693
  396EMI    C04 7507   4.572   2.364   1.669
  396EMI    C03 7508   4.487   2.272   1.622
  396EMI    H07 7509   4.298   2.514   1.706
  396EMI    H09 7510   4.678   2.367   1.671
  396EMI    H08 7511   4.508   2.179   1.574
  396EMI    C05 7512   4.234   2.261   1.597
  396EMI    H0B 7513   4.158   2.336   1.584
  396EMI    H0C 7514   4.248   2.209   1.503
  396EMI    H0D 7515   4.204   2.191   1.673
  396EMI    N00 7516   4.361   2.324   1.637
  396EMI    C06 7517   4.551   2.596   1.773
  396EMI    H0F 7518   4.533   2.598   1.880
  396EMI    C0N 7519   4.698   2.619   1.754
  396EMI    H0O 7520   4.725   2.718   1.790
  396EMI    H0P 7521   4.758   2.548   1.809
  396EMI    H0Q 7522   4.723   2.618   1.650
  396EMI    N02 7523   4.499   2.469   1.717
  396EMI    H0E 7524   4.502   2.677   1.720
  397EMI    C01 7525   0.850   0.497   4.335
  397EMI    C04 7526   1.054   0.564   4.298
  397EMI    C03 7527   0.999   0.648   4.385
  397EMI    H07 7528   0.760   0.441   4.333
  397EMI    H09 7529   1.153   0.563   4.259
  397EMI    H08 7530   1.044   0.731   4.435
  397EMI    C05 7531   0.777   0.664   4.505
  397EMI    H0B 7532   0.675   0.638   4.477
  397EMI    H0C 7533   0.801   0.621   4.601
  397EMI    H0D 7534   0.789   0.771   4.507
  397EMI    N00 7535   0.871   0.605   4.409
  397EMI    C06 7536   0.978   0.350   4.180
  397EMI    H0F 7537   1.037   0.382   4.095
  397EMI    C0N 7538   1.039   0.230   4.249
  397EMI    H0O 7539   1.024   0.143   4.186
  397EMI    H0P 7540   1.145   0.242   4.264
  397EMI    H0Q 7541   0.992   0.213   4.345
  397EMI    N02 7542   0.960   0.467   4.270
  397EMI    H0E 7543   0.883   0.323   4.140
  398EMI    C01 7544   3.227   5.009   1.657
  398EMI    C04 7545   3.055   0.067   1.742
  398EMI    C03 7546   3.027   0.036   1.615
  398EMI    H07 7547   3.324   4.963   1.647
  398EMI    H09 7548   3.001   0.119   1.817
  398EMI    H08 7549   2.940   0.058   1.558
  398EMI    C05 7550   3.152   4.969   1.425
  398EMI    H0B 7551   3.249   4.920   1.416
  398EMI    H0C 7552   3.076   4.896   1.404
  398EMI    H0D 7553   3.148   0.007   1.356
  398EMI    N00 7554   3.137   5.018   1.562
  398EMI    C06 7555   3.258   0.039   1.889
  398EMI    H0F 7556   3.310   0.134   1.888
  398EMI    C0N 7557   3.172   0.020   2.012
  398EMI    H0O 7558   3.236   0.005   2.097
  398EMI    H0P 7559   3.111   0.108   2.031
  398EMI    H0Q 7560   3.108   4.979   2.003
  398EMI    N02 7561   3.184   0.025   1.764
  398EMI    H0E 7562   3.330   5.006   1.885
  399EMI    C01 7563   0.462   1.677   0.572
  399EMI    C04 7564   0.475   1.636   0.361
  399EMI    C03 7565   0.362   1.581   0.405
  399EMI    H07 7566   0.477   1.731   0.664
  399EMI    H09 7567   0.510   1.648   0.261
  399EMI    H08 7568   0.281   1.539   0.349
  399EMI    C05 7569   0.231   1.595   0.622
  399EMI    H0B 7570   0.233   1.667   0.703
  399EMI    H0C 7571   0.145   1.622   0.562
  399EMI    H0D 7572   0.216   1.497   0.662
  399EMI    N00 7573   0.353   1.610   0.540
  399EMI    C06 7574   0.661   1.779   0.459
  399EMI    H0F 7575   0.744   1.734   0.511
  399EMI    C0N 7576   0.707   1.802   0.316
  399EMI    H0O 7577   0.801   1.857   0.316
  399EMI    H0P 7578   0.725   1.711   0.262
  399EMI    H0Q 7579   0.636   1.863   0.262
  399EMI    N02 7580   0.540   1.693   0.467
  399EMI    H0E 7581   0.638   1.877   0.498
  400EMI    C01 7582   1.818   1.741   4.842
  400EMI    C04 7583   1.825   1.954   4.886
  400EMI    C03 7584   1.767   1.891   4.988
  400EMI    H07 7585   1.830   1.646   4.794
  400EMI    H09 7586   1.854   2.056   4.876
  400EMI    H08 7587   1.738   1.926   0.038
  400EMI    C05 7588   1.703   1.656   0.002
  400EMI    H0B 7589   1.747   1.560   5.027
  400EMI    H0C 7590   1.723   1.686   0.104
  400EMI    H0D 7591   1.596   1.654   5.032
  400EMI    N00 7592   1.760   1.758   4.959
  400EMI    C06 7593   1.915   1.882   4.661
  400EMI    H0F 7594   1.846   1.935   4.598
  400EMI    C0N 7595   2.048   1.952   4.673
  400EMI    H0O 7596   2.094   1.965   4.576
  400EMI    H0P 7597   2.035   2.051   4.715
  400EMI    H0Q 7598   2.115   1.895   4.736
  400EMI    N02 7599   1.851   1.857   4.791
  400EMI    H0E 7600   1.930   1.786   4.615
  401EMI    C01 7601   1.901   0.717   1.071
  401EMI    C04 7602   1.992   0.646   0.886
  401EMI    C03 7603   1.929   0.760   0.860
  401EMI    H07 7604   1.872   0.726   1.174
  401EMI    H09 7605   2.053   0.587   0.821
  401EMI    H08 7606   1.923   0.818   0.769
  401EMI    C05 7607   1.797   0.926   0.997
  401EMI    H0B 7608   1.826   0.977   1.087
  401EMI    H0C 7609   1.822   0.991   0.915
  401EMI    H0D 7610   1.691   0.911   0.997
  401EMI    N00 7611   1.872   0.803   0.977
  401EMI    C06 7612   2.015   0.501   1.095
  401EMI    H0F 7613   1.927   0.442   1.113
  401EMI    C0N 7614   2.121   0.422   1.021
  401EMI    H0O 7615   2.159   0.341   1.081
  401EMI    H0P 7616   2.082   0.379   0.930
  401EMI    H0Q 7617   2.203   0.487   0.996
  401EMI    N02 7618   1.967   0.617   1.019
  401EMI    H0E 7619   2.058   0.536   1.186
  402EMI    C01 7620   1.171   1.323   3.549
  402EMI    C04 7621   1.171   1.223   3.741
  402EMI    C03 7622   1.242   1.335   3.754
  402EMI    H07 7623   1.148   1.347   3.447
  402EMI    H09 7624   1.151   1.144   3.809
  402EMI    H08 7625   1.293   1.372   3.839
  402EMI    C05 7626   1.282   1.536   3.607
  402EMI    H0B 7627   1.207   1.586   3.548
  402EMI    H0C 7628   1.293   1.589   3.701
  402EMI    H0D 7629   1.376   1.534   3.555
  402EMI    N00 7630   1.236   1.400   3.633
  402EMI    C06 7631   1.012   1.134   3.567
  402EMI    H0F 7632   1.049   1.034   3.572
  402EMI    C0N 7633   0.884   1.153   3.645
  402EMI    H0O 7634   0.813   1.075   3.620
  402EMI    H0P 7635   0.902   1.148   3.752
  402EMI    H0Q 7636   0.840   1.248   3.622
  402EMI    N02 7637   1.119   1.222   3.614
  402EMI    H0E 7638   0.998   1.155   3.463
  403EMI    C01 7639   1.444   3.298   1.117
  403EMI    C04 7640   1.576   3.270   0.947
  403EMI    C03 7641   1.573   3.400   0.978
  403EMI    H07 7642   1.376   3.281   1.197
  403EMI    H09 7643   1.629   3.222   0.868
  403EMI    H08 7644   1.622   3.481   0.929
  403EMI    C05 7645   1.394   3.537   1.097
  403EMI    H0B 7646   1.362   3.538   1.200
  403EMI    H0C 7647   1.451   3.624   1.069
  403EMI    H0D 7648   1.306   3.532   1.034
  403EMI    N00 7649   1.473   3.416   1.071
  403EMI    C06 7650   1.467   3.063   1.040
  403EMI    H0F 7651   1.420   3.038   0.946
  403EMI    C0N 7652   1.593   2.988   1.066
  403EMI    H0O 7653   1.572   2.883   1.073
  403EMI    H0P 7654   1.661   3.006   0.984
  403EMI    H0Q 7655   1.639   3.021   1.158
  403EMI    N02 7656   1.493   3.207   1.036
  403EMI    H0E 7657   1.393   3.045   1.116
  404EMI    C01 7658   3.939   2.409   2.769
  404EMI    C04 7659   4.072   2.295   2.896
  404EMI    C03 7660   4.083   2.248   2.772
  404EMI    H07 7661   3.871   2.484   2.737
  404EMI    H09 7662   4.123   2.267   2.986
  404EMI    H08 7663   4.147   2.171   2.739
  404EMI    C05 7664   3.995   2.310   2.545
  404EMI    H0B 7665   3.982   2.407   2.500
  404EMI    H0C 7666   4.089   2.268   2.511
  404EMI    H0D 7667   3.914   2.244   2.518
  404EMI    N00 7668   4.002   2.323   2.691
  404EMI    C06 7669   4.006   2.520   2.979
  404EMI    H0F 7670   3.958   2.504   3.075
  404EMI    C0N 7671   4.154   2.551   2.993
  404EMI    H0O 7672   4.168   2.649   3.039
  404EMI    H0P 7673   4.204   2.480   3.056
  404EMI    H0Q 7674   4.202   2.554   2.896
  404EMI    N02 7675   3.992   2.406   2.889
  404EMI    H0E 7676   3.960   2.603   2.928
  405EMI    C01 7677   1.736   0.737   2.093
  405EMI    C04 7678   1.928   0.635   2.103
  405EMI    C03 7679   1.834   0.542   2.090
  405EMI    H07 7680   1.664   0.816   2.090
  405EMI    H09 7681   2.034   0.627   2.113
  405EMI    H08 7682   1.842   0.435   2.086
  405EMI    C05 7683   1.582   0.543   2.073
  405EMI    H0B 7684   1.505   0.618   2.077
  405EMI    H0C 7685   1.579   0.491   1.979
  405EMI    H0D 7686   1.572   0.472   2.154
  405EMI    N00 7687   1.713   0.607   2.084
  405EMI    C06 7688   1.932   0.887   2.118
  405EMI    H0F 7689   1.980   0.898   2.214
  405EMI    C0N 7690   2.028   0.908   2.006
  405EMI    H0O 7691   2.057   1.012   2.006
  405EMI    H0P 7692   2.115   0.848   2.027
  405EMI    H0Q 7693   1.981   0.884   1.912
  405EMI    N02 7694   1.865   0.757   2.107
  405EMI    H0E 7695   1.856   0.963   2.108
  406EMI    C01 7696   0.423   4.196   1.955
  406EMI    C04 7697   0.592   4.087   1.872
  406EMI    C03 7698   0.488   4.068   1.790
  406EMI    H07 7699   0.362   4.257   2.018
  406EMI    H09 7700   0.690   4.045   1.873
  406EMI    H08 7701   0.479   4.008   1.703
  406EMI    C05 7702   0.245   4.137   1.793
  406EMI    H0B 7703   0.198   4.233   1.814
  406EMI    H0C 7704   0.243   4.119   1.687
  406EMI    H0D 7705   0.190   4.059   1.844
  406EMI    N00 7706   0.382   4.138   1.844
  406EMI    C06 7707   0.625   4.179   2.105
  406EMI    H0F 7708   0.631   4.088   2.162
  406EMI    C0N 7709   0.761   4.234   2.073
  406EMI    H0O 7710   0.811   4.266   2.164
  406EMI    H0P 7711   0.824   4.160   2.027
  406EMI    H0Q 7712   0.752   4.316   2.004
  406EMI    N02 7713   0.546   4.157   1.982
  406EMI    H0E 7714   0.575   4.253   2.165
  407EMI    C01 7715   4.212   4.974   3.257
  407EMI    C04 7716   4.175   4.931   3.048
  407EMI    C03 7717   4.061   4.975   3.102
  407EMI    H07 7718   4.265   4.995   3.348
  407EMI    H09 7719   4.196   4.906   2.947
  407EMI    H08 7720   3.969   4.997   3.052
  407EMI    C05 7721   3.986   0.002   3.333
  407EMI    H0B 7722   4.023   5.032   3.433
  407EMI    H0C 7723   3.972   0.108   3.317
  407EMI    H0D 7724   3.893   4.995   3.321
  407EMI    N00 7725   4.084   4.996   3.236
  407EMI    C06 7726   4.407   4.876   3.135
  407EMI    H0F 7727   4.415   4.770   3.155
  407EMI    C0N 7728   4.462   4.905   2.998
  407EMI    H0O 7729   4.567   4.876   2.993
  407EMI    H0P 7730   4.411   4.849   2.921
  407EMI    H0Q 7731   4.457   5.011   2.979
  407EMI    N02 7732   4.267   4.921   3.150
  407EMI    H0E 7733   4.467   4.935   3.203
  408EMI    C01 7734   2.367   3.033   1.135
  408EMI    C04 7735   2.550   3.099   1.039
  408EMI    C03 7736   2.516   3.189   1.130
  408EMI    H07 7737   2.282   2.976   1.164
  408EMI    H09 7738   2.631   3.101   0.969
  408EMI    H08 7739   2.559   3.281   1.158
  408EMI    C05 7740   2.327   3.228   1.287
  408EMI    H0B 7741   2.254   3.165   1.335
  408EMI    H0C 7742   2.398   3.264   1.359
  408EMI    H0D 7743   2.281   3.313   1.240
  408EMI    N00 7744   2.398   3.150   1.186
  408EMI    C06 7745   2.466   2.869   0.976
  408EMI    H0F 7746   2.414   2.874   0.882
  408EMI    C0N 7747   2.610   2.827   0.956
  408EMI    H0O 7748   2.617   2.726   0.918
  408EMI    H0P 7749   2.657   2.890   0.882
  408EMI    H0Q 7750   2.669   2.834   1.047
  408EMI    N02 7751   2.455   3.000   1.043
  408EMI    H0E 7752   2.417   2.797   1.038
  409EMI    C01 7753   1.540   3.286   4.401
  409EMI    C04 7754   1.591   3.410   4.572
  409EMI    C03 7755   1.511   3.312   4.615
  409EMI    H07 7756   1.534   3.251   4.300
  409EMI    H09 7757   1.628   3.494   4.626
  409EMI    H08 7758   1.467   3.294   4.711
  409EMI    C05 7759   1.369   3.138   4.502
  409EMI    H0B 7760   1.411   3.041   4.485
  409EMI    H0C 7761   1.314   3.139   4.595
  409EMI    H0D 7762   1.300   3.158   4.421
  409EMI    N00 7763   1.474   3.239   4.504
  409EMI    C06 7764   1.650   3.496   4.338
  409EMI    H0F 7765   1.565   3.520   4.277
  409EMI    C0N 7766   1.704   3.623   4.401
  409EMI    H0O 7767   1.753   3.681   4.324
  409EMI    H0P 7768   1.625   3.680   4.446
  409EMI    H0Q 7769   1.777   3.601   4.478
  409EMI    N02 7770   1.603   3.395   4.435
  409EMI    H0E 7771   1.724   3.450   4.275
  410EMI    C01 7772   1.481   2.957   1.393
  410EMI    C04 7773   1.288   2.862   1.423
  410EMI    C03 7774   1.382   2.770   1.446
  410EMI    H07 7775   1.555   3.034   1.383
  410EMI    H09 7776   1.182   2.856   1.434
  410EMI    H08 7777   1.370   2.670   1.480
  410EMI    C05 7778   1.635   2.771   1.443
  410EMI    H0B 7779   1.706   2.851   1.460
  410EMI    H0C 7780   1.634   2.708   1.530
  410EMI    H0D 7781   1.661   2.715   1.355
  410EMI    N00 7782   1.504   2.832   1.427
  410EMI    C06 7783   1.289   3.109   1.371
  410EMI    H0F 7784   1.253   3.114   1.272
  410EMI    C0N 7785   1.177   3.135   1.467
  410EMI    H0O 7786   1.146   3.236   1.446
  410EMI    H0P 7787   1.093   3.069   1.454
  410EMI    H0Q 7788   1.210   3.134   1.570
  410EMI    N02 7789   1.352   2.978   1.389
  410EMI    H0E 7790   1.363   3.185   1.389
  411EMI    C01 7791   2.905   1.628   3.022
  411EMI    C04 7792   2.704   1.599   3.099
  411EMI    C03 7793   2.791   1.586   3.199
  411EMI    H07 7794   2.989   1.633   2.958
  411EMI    H09 7795   2.599   1.580   3.099
  411EMI    H08 7796   2.776   1.553   3.300
  411EMI    C05 7797   3.037   1.647   3.229
  411EMI    H0B 7798   3.082   1.741   3.202
  411EMI    H0C 7799   3.018   1.645   3.335
  411EMI    H0D 7800   3.107   1.568   3.205
  411EMI    N00 7801   2.915   1.622   3.152
  411EMI    C06 7802   2.729   1.631   2.847
  411EMI    H0F 7803   2.711   1.531   2.815
  411EMI    C0N 7804   2.605   1.715   2.832
  411EMI    H0O 7805   2.571   1.712   2.729
  411EMI    H0P 7806   2.525   1.673   2.892
  411EMI    H0Q 7807   2.623   1.816   2.863
  411EMI    N02 7808   2.779   1.622   2.986
  411EMI    H0E 7809   2.809   1.671   2.788
  412EMI    C01 7810   2.456   2.597   1.624
  412EMI    C04 7811   2.401   2.782   1.721
  412EMI    C03 7812   2.297   2.700   1.727
  412EMI    H07 7813   2.510   2.518   1.577
  412EMI    H09 7814   2.409   2.881   1.760
  412EMI    H08 7815   2.201   2.718   1.771
  412EMI    C05 7816   2.245   2.466   1.648
  412EMI    H0B 7817   2.302   2.383   1.608
  412EMI    H0C 7818   2.207   2.436   1.744
  412EMI    H0D 7819   2.163   2.491   1.585
  412EMI    N00 7820   2.332   2.584   1.664
  412EMI    C06 7821   2.645   2.762   1.653
  412EMI    H0F 7822   2.681   2.749   1.553
  412EMI    C0N 7823   2.669   2.907   1.696
  412EMI    H0O 7824   2.737   2.952   1.627
  412EMI    H0P 7825   2.582   2.970   1.699
  412EMI    H0Q 7826   2.715   2.911   1.794
  412EMI    N02 7827   2.505   2.714   1.662
  412EMI    H0E 7828   2.703   2.702   1.721
  413EMI    C01 7829   1.075   3.643   1.940
  413EMI    C04 7830   0.860   3.618   1.941
  413EMI    C03 7831   0.910   3.555   2.047
  413EMI    H07 7832   1.171   3.683   1.917
  413EMI    H09 7833   0.757   3.627   1.914
  413EMI    H08 7834   0.856   3.506   2.125
  413EMI    C05 7835   1.137   3.539   2.157
  413EMI    H0B 7836   1.239   3.536   2.122
  413EMI    H0C 7837   1.129   3.616   2.232
  413EMI    H0D 7838   1.111   3.444   2.200
  413EMI    N00 7839   1.046   3.571   2.046
  413EMI    C06 7840   0.962   3.762   1.754
  413EMI    H0F 7841   1.008   3.710   1.673
  413EMI    C0N 7842   0.820   3.800   1.716
  413EMI    H0O 7843   0.815   3.838   1.615
  413EMI    H0P 7844   0.755   3.715   1.721
  413EMI    H0Q 7845   0.781   3.875   1.783
  413EMI    N02 7846   0.966   3.673   1.873
  413EMI    H0E 7847   1.015   3.852   1.780
  414EMI    C01 7848   3.185   3.785   2.300
  414EMI    C04 7849   3.141   3.724   2.095
  414EMI    C03 7850   3.261   3.677   2.128
  414EMI    H07 7851   3.177   3.835   2.395
  414EMI    H09 7852   3.086   3.719   2.004
  414EMI    H08 7853   3.335   3.626   2.072
  414EMI    C05 7854   3.415   3.689   2.323
  414EMI    H0B 7855   3.402   3.665   2.427
  414EMI    H0C 7856   3.472   3.614   2.273
  414EMI    H0D 7857   3.475   3.778   2.312
  414EMI    N00 7858   3.287   3.715   2.257
  414EMI    C06 7859   2.969   3.869   2.208
  414EMI    H0F 7860   2.980   3.968   2.165
  414EMI    C0N 7861   2.859   3.790   2.141
  414EMI    H0O 7862   2.763   3.827   2.174
  414EMI    H0P 7863   2.865   3.800   2.033
  414EMI    H0Q 7864   2.865   3.685   2.167
  414EMI    N02 7865   3.097   3.798   2.202
  414EMI    H0E 7866   2.945   3.878   2.312
  415EMI    C01 7867   1.746   3.666   0.505
  415EMI    C04 7868   1.715   3.763   0.697
  415EMI    C03 7869   1.597   3.726   0.650
  415EMI    H07 7870   1.792   3.625   0.418
  415EMI    H09 7871   1.735   3.815   0.788
  415EMI    H08 7872   1.499   3.741   0.690
  415EMI    C05 7873   1.516   3.600   0.446
  415EMI    H0B 7874   1.529   3.493   0.439
  415EMI    H0C 7875   1.419   3.617   0.488
  415EMI    H0D 7876   1.519   3.647   0.349
  415EMI    N00 7877   1.618   3.659   0.531
  415EMI    C06 7878   1.953   3.748   0.609
  415EMI    H0F 7879   1.976   3.840   0.558
  415EMI    C0N 7880   2.014   3.746   0.748
  415EMI    H0O 7881   2.102   3.682   0.752
  415EMI    H0P 7882   2.044   3.846   0.776
  415EMI    H0Q 7883   1.946   3.709   0.823
  415EMI    N02 7884   1.808   3.729   0.602
  415EMI    H0E 7885   1.989   3.660   0.559
  416EMI    C01 7886   1.567   2.045   2.932
  416EMI    C04 7887   1.452   1.902   2.817
  416EMI    C03 7888   1.581   1.878   2.795
  416EMI    H07 7889   1.594   2.122   3.001
  416EMI    H09 7890   1.366   1.857   2.775
  416EMI    H08 7891   1.626   1.806   2.729
  416EMI    C05 7892   1.800   1.966   2.884
  416EMI    H0B 7893   1.827   1.996   2.984
  416EMI    H0C 7894   1.837   1.868   2.863
  416EMI    H0D 7895   1.843   2.037   2.817
  416EMI    N00 7896   1.653   1.967   2.870
  416EMI    C06 7897   1.318   2.069   2.953
  416EMI    H0F 7898   1.324   2.175   2.939
  416EMI    C0N 7899   1.197   2.020   2.874
  416EMI    H0O 7900   1.109   2.078   2.900
  416EMI    H0P 7901   1.209   2.026   2.767
  416EMI    H0Q 7902   1.178   1.917   2.897
  416EMI    N02 7903   1.444   2.008   2.905
  416EMI    H0E 7904   1.303   2.043   3.057
  417EMI    C01 7905   2.825   0.975   3.457
  417EMI    C04 7906   3.028   0.906   3.490
  417EMI    C03 7907   3.024   1.036   3.516
  417EMI    H07 7908   2.721   0.980   3.433
  417EMI    H09 7909   3.112   0.840   3.497
  417EMI    H08 7910   3.103   1.100   3.549
  417EMI    C05 7911   2.846   1.217   3.509
  417EMI    H0B 7912   2.752   1.220   3.562
  417EMI    H0C 7913   2.917   1.277   3.563
  417EMI    H0D 7914   2.831   1.265   3.413
  417EMI    N00 7915   2.896   1.080   3.491
  417EMI    C06 7916   2.878   0.750   3.358
  417EMI    H0F 7917   2.841   0.781   3.262
  417EMI    C0N 7918   3.006   0.674   3.331
  417EMI    H0O 7919   2.987   0.589   3.267
  417EMI    H0P 7920   3.081   0.735   3.282
  417EMI    H0Q 7921   3.046   0.636   3.424
  417EMI    N02 7922   2.905   0.871   3.439
  417EMI    H0E 7923   2.810   0.684   3.407
  418EMI    C01 7924   0.124   1.009   4.329
  418EMI    C04 7925   0.279   0.868   4.381
  418EMI    C03 7926   0.285   0.885   4.249
  418EMI    H07 7927   0.045   1.080   4.338
  418EMI    H09 7928   0.341   0.810   4.445
  418EMI    H08 7929   0.353   0.844   4.178
  418EMI    C05 7930   0.156   1.027   4.084
  418EMI    H0B 7931   0.098   1.117   4.094
  418EMI    H0C 7932   0.249   1.047   4.034
  418EMI    H0D 7933   0.100   0.951   4.032
  418EMI    N00 7934   0.186   0.976   4.218
  418EMI    C06 7935   0.115   0.934   4.564
  418EMI    H0F 7936   0.045   0.852   4.572
  418EMI    C0N 7937   0.223   0.930   4.670
  418EMI    H0O 7938   0.182   0.949   4.768
  418EMI    H0P 7939   0.273   0.834   4.673
  418EMI    H0Q 7940   0.298   1.005   4.650
  418EMI    N02 7941   0.168   0.935   4.427
  418EMI    H0E 7942   0.062   1.027   4.574
  419EMI    C01 7943   3.708   2.060   3.082
  419EMI    C04 7944   3.502   2.014   3.133
  419EMI    C03 7945   3.542   2.117   3.209
  419EMI    H07 7946   3.806   2.053   3.039
  419EMI    H09 7947   3.407   1.965   3.129
  419EMI    H08 7948   3.487   2.173   3.282
  419EMI    C05 7949   3.769   2.219   3.263
  419EMI    H0B 7950   3.869   2.211   3.223
  419EMI    H0C 7951   3.738   2.322   3.266
  419EMI    H0D 7952   3.772   2.180   3.364
  419EMI    N00 7953   3.676   2.138   3.183
  419EMI    C06 7954   3.627   1.842   2.995
  419EMI    H0F 7955   3.564   1.774   3.049
  419EMI    C0N 7956   3.592   1.841   2.849
  419EMI    H0O 7957   3.609   1.742   2.809
  419EMI    H0P 7958   3.487   1.866   2.834
  419EMI    H0Q 7959   3.655   1.909   2.794
  419EMI    N02 7960   3.611   1.973   3.061
  419EMI    H0E 7961   3.727   1.808   3.015
  420EMI    C01 7962   0.726   1.413   3.095
  420EMI    C04 7963   0.816   1.488   2.915
  420EMI    C03 7964   0.765   1.592   2.980
  420EMI    H07 7965   0.702   1.348   3.176
  420EMI    H09 7966   0.870   1.486   2.822
  420EMI    H08 7967   0.767   1.697   2.958
  420EMI    C05 7968   0.629   1.622   3.192
  420EMI    H0B 7969   0.588   1.559   3.269
  420EMI    H0C 7970   0.694   1.692   3.241
  420EMI    H0D 7971   0.550   1.676   3.142
  420EMI    N00 7972   0.704   1.543   3.094
  420EMI    C06 7973   0.778   1.237   2.925
  420EMI    H0F 7974   0.682   1.210   2.883
  420EMI    C0N 7975   0.881   1.225   2.816
  420EMI    H0O 7976   0.899   1.122   2.789
  420EMI    H0P 7977   0.849   1.277   2.726
  420EMI    H0Q 7978   0.974   1.270   2.845
  420EMI    N02 7979   0.771   1.375   2.978
  420EMI    H0E 7980   0.807   1.170   3.005
  421EMI    C01 7981   2.675   3.337   2.452
  421EMI    C04 7982   2.643   3.467   2.622
  421EMI    C03 7983   2.648   3.342   2.666
  421EMI    H07 7984   2.689   3.304   2.352
  421EMI    H09 7985   2.626   3.557   2.677
  421EMI    H08 7986   2.637   3.304   2.766
  421EMI    C05 7987   2.713   3.118   2.566
  421EMI    H0B 7988   2.809   3.104   2.518
  421EMI    H0C 7989   2.721   3.090   2.670
  421EMI    H0D 7990   2.638   3.058   2.518
  421EMI    N00 7991   2.678   3.261   2.559
  421EMI    C06 7992   2.699   3.580   2.401
  421EMI    H0F 7993   2.609   3.621   2.359
  421EMI    C0N 7994   2.773   3.689   2.476
  421EMI    H0O 7995   2.782   3.777   2.414
  421EMI    H0P 7996   2.718   3.721   2.563
  421EMI    H0Q 7997   2.871   3.656   2.505
  421EMI    N02 7998   2.667   3.464   2.487
  421EMI    H0E 7999   2.764   3.545   2.322
  422EMI    C01 8000   4.601   4.654   3.574
  422EMI    C04 8001   4.514   4.538   3.412
  422EMI    C03 8002   4.633   4.485   3.443
  422EMI    H07 8003   4.621   4.735   3.642
  422EMI    H09 8004   4.450   4.515   3.330
  422EMI    H08 8005   4.688   4.408   3.393
  422EMI    C05 8006   4.833   4.564   3.574
  422EMI    H0B 8007   4.849   4.573   3.680
  422EMI    H0C 8008   4.881   4.474   3.537
  422EMI    H0D 8009   4.880   4.648   3.525
  422EMI    N00 8010   4.690   4.564   3.539
  422EMI    C06 8011   4.382   4.739   3.487
  422EMI    H0F 8012   4.405   4.811   3.409
  422EMI    C0N 8013   4.249   4.669   3.460
  422EMI    H0O 8014   4.166   4.739   3.470
  422EMI    H0P 8015   4.245   4.632   3.358
  422EMI    H0Q 8016   4.233   4.586   3.527
  422EMI    N02 8017   4.496   4.646   3.494
  422EMI    H0E 8018   4.380   4.791   3.581
  423EMI    C01 8019   4.207   0.849   4.090
  423EMI    C04 8020   4.088   0.676   4.142
  423EMI    C03 8021   4.213   0.651   4.177
  423EMI    H07 8022   4.235   0.947   4.058
  423EMI    H09 8023   4.003   0.612   4.150
  423EMI    H08 8024   4.255   0.562   4.221
  423EMI    C05 8025   4.437   0.765   4.145
  423EMI    H0B 8026   4.473   0.866   4.138
  423EMI    H0C 8027   4.472   0.720   4.237
  423EMI    H0D 8028   4.478   0.707   4.063
  423EMI    N00 8029   4.290   0.758   4.137
  423EMI    C06 8030   3.971   0.856   4.007
  423EMI    H0F 8031   3.968   0.818   3.907
  423EMI    C0N 8032   3.839   0.831   4.080
  423EMI    H0O 8033   3.757   0.880   4.028
  423EMI    H0P 8034   3.816   0.726   4.085
  423EMI    H0Q 8035   3.841   0.868   4.181
  423EMI    N02 8036   4.087   0.796   4.076
  423EMI    H0E 8037   3.991   0.962   4.000
  424EMI    C01 8038   3.484   4.312   3.261
  424EMI    C04 8039   3.613   4.300   3.085
  424EMI    C03 8040   3.687   4.276   3.193
  424EMI    H07 8041   3.400   4.330   3.324
  424EMI    H09 8042   3.645   4.304   2.983
  424EMI    H08 8043   3.792   4.254   3.196
  424EMI    C05 8044   3.646   4.271   3.443
  424EMI    H0B 8045   3.568   4.222   3.498
  424EMI    H0C 8046   3.735   4.211   3.447
  424EMI    H0D 8047   3.664   4.370   3.483
  424EMI    N00 8048   3.605   4.285   3.303
  424EMI    C06 8049   3.364   4.347   3.046
  424EMI    H0F 8050   3.332   4.449   3.058
  424EMI    C0N 8051   3.393   4.325   2.900
  424EMI    H0O 8052   3.300   4.327   2.846
  424EMI    H0P 8053   3.456   4.403   2.862
  424EMI    H0Q 8054   3.439   4.229   2.880
  424EMI    N02 8055   3.483   4.320   3.129
  424EMI    H0E 8056   3.289   4.276   3.073
  425EMI    C01 8057   2.066   4.570   3.491
  425EMI    C04 8058   2.203   4.535   3.326
  425EMI    C03 8059   2.113   4.438   3.324
  425EMI    H07 8060   2.017   4.616   3.575
  425EMI    H09 8061   2.281   4.556   3.257
  425EMI    H08 8062   2.100   4.358   3.253
  425EMI    C05 8063   1.903   4.387   3.453
  425EMI    H0B 8064   1.854   4.421   3.543
  425EMI    H0C 8065   1.835   4.401   3.371
  425EMI    H0D 8066   1.926   4.282   3.461
  425EMI    N00 8067   2.025   4.462   3.427
  425EMI    C06 8068   2.235   4.751   3.458
  425EMI    H0F 8069   2.264   4.755   3.562
  425EMI    C0N 8070   2.357   4.775   3.371
  425EMI    H0O 8071   2.400   4.871   3.395
  425EMI    H0P 8072   2.433   4.700   3.386
  425EMI    H0Q 8073   2.329   4.778   3.266
  425EMI    N02 8074   2.170   4.621   3.429
  425EMI    H0E 8075   2.163   4.827   3.434
  426EMI    C01 8076   4.432   2.640   2.448
  426EMI    C04 8077   4.262   2.513   2.398
  426EMI    C03 8078   4.236   2.573   2.515
  426EMI    H07 8079   4.524   2.694   2.444
  426EMI    H09 8080   4.200   2.450   2.340
  426EMI    H08 8081   4.150   2.571   2.578
  426EMI    C05 8082   4.348   2.752   2.653
  426EMI    H0B 8083   4.418   2.830   2.627
  426EMI    H0C 8084   4.252   2.798   2.664
  426EMI    H0D 8085   4.377   2.707   2.747
  426EMI    N00 8086   4.343   2.654   2.544
  426EMI    C06 8087   4.454   2.516   2.233
  426EMI    H0F 8088   4.521   2.435   2.256
  426EMI    C0N 8089   4.366   2.473   2.117
  426EMI    H0O 8090   4.428   2.453   2.030
  426EMI    H0P 8091   4.312   2.383   2.140
  426EMI    H0Q 8092   4.298   2.552   2.090
  426EMI    N02 8093   4.387   2.554   2.359
  426EMI    H0E 8094   4.508   2.604   2.202
  427EMI    C01 8095   4.068   2.528   1.218
  427EMI    C04 8096   4.092   2.569   1.008
  427EMI    C03 8097   4.192   2.489   1.045
  427EMI    H07 8098   4.024   2.521   1.314
  427EMI    H09 8099   4.064   2.604   0.911
  427EMI    H08 8100   4.267   2.442   0.987
  427EMI    C05 8101   4.255   2.378   1.266
  427EMI    H0B 8102   4.185   2.320   1.323
  427EMI    H0C 8103   4.316   2.312   1.208
  427EMI    H0D 8104   4.316   2.438   1.328
  427EMI    N00 8105   4.175   2.464   1.179
  427EMI    C06 8106   3.931   2.718   1.140
  427EMI    H0F 8107   3.980   2.801   1.190
  427EMI    C0N 8108   3.873   2.763   1.009
  427EMI    H0O 8109   3.783   2.820   1.027
  427EMI    H0P 8110   3.941   2.826   0.953
  427EMI    H0Q 8111   3.847   2.677   0.949
  427EMI    N02 8112   4.028   2.609   1.123
  427EMI    H0E 8113   3.847   2.681   1.197
  428EMI    C01 8114   1.396   3.781   4.272
  428EMI    C04 8115   1.564   3.875   4.177
  428EMI    C03 8116   1.519   3.779   4.095
  428EMI    H07 8117   1.313   3.764   4.337
  428EMI    H09 8118   1.645   3.942   4.163
  428EMI    H08 8119   1.551   3.744   3.999
  428EMI    C05 8120   1.338   3.600   4.119
  428EMI    H0B 8121   1.263   3.578   4.193
  428EMI    H0C 8122   1.289   3.619   4.024
  428EMI    H0D 8123   1.404   3.515   4.111
  428EMI    N00 8124   1.415   3.716   4.161
  428EMI    C06 8125   1.496   3.956   4.412
  428EMI    H0F 8126   1.566   3.912   4.483
  428EMI    C0N 8127   1.522   4.101   4.382
  428EMI    H0O 8128   1.520   4.160   4.473
  428EMI    H0P 8129   1.620   4.112   4.336
  428EMI    H0Q 8130   1.446   4.139   4.314
  428EMI    N02 8131   1.488   3.870   4.292
  428EMI    H0E 8132   1.398   3.949   4.457
  429EMI    C01 8133   3.056   0.947   1.603
  429EMI    C04 8134   2.874   0.864   1.690
  429EMI    C03 8135   2.945   0.763   1.640
  429EMI    H07 8136   3.135   1.015   1.578
  429EMI    H09 8137   2.789   0.862   1.755
  429EMI    H08 8138   2.937   0.657   1.651
  429EMI    C05 8139   3.155   0.745   1.509
  429EMI    H0B 8140   3.222   0.703   1.583
  429EMI    H0C 8141   3.116   0.666   1.448
  429EMI    H0D 8142   3.211   0.813   1.447
  429EMI    N00 8143   3.054   0.819   1.579
  429EMI    C06 8144   2.912   1.115   1.707
  429EMI    H0F 8145   2.870   1.171   1.625
  429EMI    C0N 8146   2.820   1.114   1.827
  429EMI    H0O 8147   2.796   1.215   1.854
  429EMI    H0P 8148   2.728   1.060   1.816
  429EMI    H0Q 8149   2.870   1.070   1.912
  429EMI    N02 8150   2.944   0.980   1.662
  429EMI    H0E 8151   3.004   1.161   1.739
  430EMI    C01 8152   1.583   0.990   2.676
  430EMI    C04 8153   1.788   1.060   2.655
  430EMI    C03 8154   1.790   0.929   2.671
  430EMI    H07 8155   1.475   0.990   2.682
  430EMI    H09 8156   1.870   1.127   2.639
  430EMI    H08 8157   1.873   0.863   2.670
  430EMI    C05 8158   1.626   0.745   2.715
  430EMI    H0B 8159   1.522   0.725   2.695
  430EMI    H0C 8160   1.687   0.677   2.658
  430EMI    H0D 8161   1.647   0.726   2.819
  430EMI    N00 8162   1.661   0.885   2.686
  430EMI    C06 8163   1.611   1.239   2.670
  430EMI    H0F 8164   1.536   1.245   2.748
  430EMI    C0N 8165   1.723   1.335   2.706
  430EMI    H0O 8166   1.685   1.434   2.722
  430EMI    H0P 8167   1.775   1.302   2.795
  430EMI    H0Q 8168   1.795   1.341   2.624
  430EMI    N02 8169   1.656   1.099   2.662
  430EMI    H0E 8170   1.570   1.268   2.575
  431EMI    C01 8171   0.011   1.155   2.897
  431EMI    C04 8172   4.926   1.301   2.990
  431EMI    C03 8173   4.949   1.205   3.079
  431EMI    H07 8174   0.073   1.102   2.827
  431EMI    H09 8175   4.872   1.393   3.002
  431EMI    H08 8176   4.916   1.198   3.181
  431EMI    C05 8177   0.037   0.988   3.076
  431EMI    H0B 8178   0.107   0.942   3.008
  431EMI    H0C 8179   0.090   1.009   3.167
  431EMI    H0D 8180   5.002   0.918   3.095
  431EMI    N00 8181   5.032   1.113   3.019
  431EMI    C06 8182   5.007   1.355   2.754
  431EMI    H0F 8183   4.939   1.321   2.678
  431EMI    C0N 8184   4.988   1.502   2.785
  431EMI    H0O 8185   5.006   1.563   2.697
  431EMI    H0P 8186   4.891   1.525   2.826
  431EMI    H0Q 8187   0.016   1.532   2.859
  431EMI    N02 8188   4.996   1.270   2.875
  431EMI    H0E 8189   0.064   1.350   2.720
  432EMI    C01 8190   1.753   2.343   0.228
  432EMI    C04 8191   1.837   2.158   0.156
  432EMI    C03 8192   1.703   2.148   0.152
  432EMI    H07 8193   1.746   2.441   0.266
  432EMI    H09 8194   1.912   2.084   0.137
  432EMI    H08 8195   1.637   2.069   0.131
  432EMI    C05 8196   1.507   2.301   0.190
  432EMI    H0B 8197   1.478   2.335   0.092
  432EMI    H0C 8198   1.451   2.212   0.212
  432EMI    H0D 8199   1.485   2.376   0.263
  432EMI    N00 8200   1.651   2.268   0.191
  432EMI    C06 8201   2.002   2.338   0.239
  432EMI    H0F 8202   2.002   2.373   0.340
  432EMI    C0N 8203   2.112   2.235   0.235
  432EMI    H0O 8204   2.209   2.280   0.256
  432EMI    H0P 8205   2.096   2.157   0.307
  432EMI    H0Q 8206   2.116   2.189   0.139
  432EMI    N02 8207   1.867   2.283   0.205
  432EMI    H0E 8208   2.029   2.415   0.170
  433EMI    C01 8209   2.285   1.145   3.385
  433EMI    C04 8210   2.401   1.064   3.551
  433EMI    C03 8211   2.375   0.964   3.466
  433EMI    H07 8212   2.231   1.214   3.323
  433EMI    H09 8213   2.455   1.063   3.642
  433EMI    H08 8214   2.401   0.861   3.473
  433EMI    C05 8215   2.233   0.940   3.258
  433EMI    H0B 8216   2.243   0.992   3.164
  433EMI    H0C 8217   2.276   0.842   3.251
  433EMI    H0D 8218   2.127   0.933   3.282
  433EMI    N00 8219   2.298   1.016   3.364
  433EMI    C06 8220   2.343   1.312   3.561
  433EMI    H0F 8221   2.261   1.322   3.630
  433EMI    C0N 8222   2.477   1.350   3.622
  433EMI    H0O 8223   2.468   1.449   3.665
  433EMI    H0P 8224   2.511   1.281   3.698
  433EMI    H0Q 8225   2.556   1.359   3.549
  433EMI    N02 8226   2.339   1.177   3.501
  433EMI    H0E 8227   2.325   1.382   3.480
  434EMI    C01 8228   3.103   2.545   4.383
  434EMI    C04 8229   3.075   2.712   4.519
  434EMI    C03 8230   2.967   2.635   4.525
  434EMI    H07 8231   3.146   2.475   4.315
  434EMI    H09 8232   3.102   2.796   4.579
  434EMI    H08 8233   2.883   2.643   4.589
  434EMI    C05 8234   2.874   2.446   4.385
  434EMI    H0B 8235   2.916   2.359   4.338
  434EMI    H0C 8236   2.815   2.415   4.470
  434EMI    H0D 8237   2.810   2.497   4.315
  434EMI    N00 8238   2.981   2.537   4.430
  434EMI    C06 8239   3.302   2.697   4.413
  434EMI    H0F 8240   3.297   2.801   4.385
  434EMI    C0N 8241   3.392   2.676   4.534
  434EMI    H0O 8242   3.495   2.694   4.509
  434EMI    H0P 8243   3.364   2.742   4.615
  434EMI    H0Q 8244   3.383   2.574   4.571
  434EMI    N02 8245   3.164   2.651   4.435
  434EMI    H0E 8246   3.338   2.642   4.329
  435EMI    C01 8247   2.549   0.320   4.082
  435EMI    C04 8248   2.392   0.373   4.221
  435EMI    C03 8249   2.458   0.484   4.190
  435EMI    H07 8250   2.614   0.265   4.018
  435EMI    H09 8251   2.307   0.359   4.283
  435EMI    H08 8252   2.439   0.584   4.223
  435EMI    C05 8253   2.672   0.537   4.067
  435EMI    H0B 8254   2.697   0.515   3.966
  435EMI    H0C 8255   2.642   0.641   4.073
  435EMI    H0D 8256   2.760   0.521   4.128
  435EMI    N00 8257   2.563   0.448   4.110
  435EMI    C06 8258   2.405   0.129   4.163
  435EMI    H0F 8259   2.466   0.076   4.236
  435EMI    C0N 8260   2.261   0.117   4.210
  435EMI    H0O 8261   2.229   0.014   4.203
  435EMI    H0P 8262   2.253   0.144   4.315
  435EMI    H0Q 8263   2.194   0.180   4.153
  435EMI    N02 8264   2.453   0.269   4.156
  435EMI    H0E 8265   2.416   0.086   4.065
  436EMI    C01 8266   2.734   0.885   3.018
  436EMI    C04 8267   2.749   1.038   3.168
  436EMI    C03 8268   2.631   0.979   3.182
  436EMI    H07 8269   2.755   0.822   2.935
  436EMI    H09 8270   2.790   1.123   3.218
  436EMI    H08 8271   2.549   1.005   3.247
  436EMI    C05 8272   2.511   0.787   3.072
  436EMI    H0B 8273   2.544   0.702   3.014
  436EMI    H0C 8274   2.481   0.753   3.169
  436EMI    H0D 8275   2.429   0.836   3.022
  436EMI    N00 8276   2.623   0.880   3.088
  436EMI    C06 8277   2.965   0.978   3.048
  436EMI    H0F 8278   2.984   1.040   2.963
  436EMI    C0N 8279   3.047   1.034   3.162
  436EMI    H0O 8280   3.136   1.082   3.121
  436EMI    H0P 8281   2.998   1.113   3.218
  436EMI    H0Q 8282   3.080   0.957   3.230
  436EMI    N02 8283   2.819   0.971   3.071
  436EMI    H0E 8284   3.001   0.879   3.033
  437EMI    C01 8285   1.451   2.788   0.186
  437EMI    C04 8286   1.526   2.987   0.147
  437EMI    C03 8287   1.400   2.982   0.104
  437EMI    H07 8288   1.443   2.685   0.211
  437EMI    H09 8289   1.598   3.064   0.139
  437EMI    H08 8290   1.339   3.053   0.053
  437EMI    C05 8291   1.225   2.801   0.081
  437EMI    H0B 8292   1.239   2.711   0.023
  437EMI    H0C 8293   1.159   2.781   0.162
  437EMI    H0D 8294   1.176   2.875   0.018
  437EMI    N00 8295   1.355   2.854   0.125
  437EMI    C06 8296   1.700   2.821   0.221
  437EMI    H0F 8297   1.754   2.828   0.127
  437EMI    C0N 8298   1.770   2.895   0.334
  437EMI    H0O 8299   1.875   2.870   0.335
  437EMI    H0P 8300   1.762   3.002   0.320
  437EMI    H0Q 8301   1.727   2.868   0.429
  437EMI    N02 8302   1.561   2.862   0.190
  437EMI    H0E 8303   1.700   2.717   0.245
  438EMI    C01 8304   0.388   1.913   1.283
  438EMI    C04 8305   0.269   1.904   1.465
  438EMI    C03 8306   0.193   1.861   1.365
  438EMI    H07 8307   0.469   1.929   1.216
  438EMI    H09 8308   0.242   1.914   1.567
  438EMI    H08 8309   0.091   1.830   1.368
  438EMI    C05 8310   0.222   1.827   1.116
  438EMI    H0B 8311   0.300   1.834   1.043
  438EMI    H0C 8312   0.185   1.726   1.120
  438EMI    H0D 8313   0.141   1.892   1.086
  438EMI    N00 8314   0.268   1.867   1.250
  438EMI    C06 8315   0.508   1.991   1.488
  438EMI    H0F 8316   0.502   2.098   1.502
  438EMI    C0N 8317   0.532   1.922   1.621
  438EMI    H0O 8318   0.637   1.927   1.647
  438EMI    H0P 8319   0.479   1.972   1.701
  438EMI    H0Q 8320   0.500   1.819   1.620
  438EMI    N02 8321   0.391   1.942   1.412
  438EMI    H0E 8322   0.594   1.965   1.429
  439EMI    C01 8323   2.981   1.697   1.802
  439EMI    C04 8324   3.118   1.774   1.952
  439EMI    C03 8325   3.189   1.697   1.870
  439EMI    H07 8326   2.891   1.677   1.748
  439EMI    H09 8327   3.146   1.828   2.038
  439EMI    H08 8328   3.291   1.668   1.868
  439EMI    C05 8329   3.137   1.572   1.659
  439EMI    H0B 8330   3.082   1.602   1.572
  439EMI    H0C 8331   3.243   1.580   1.640
  439EMI    H0D 8332   3.115   1.468   1.681
  439EMI    N00 8333   3.101   1.652   1.774
  439EMI    C06 8334   2.874   1.820   1.990
  439EMI    H0F 8335   2.848   1.758   2.075
  439EMI    C0N 8336   2.910   1.961   2.026
  439EMI    H0O 8337   2.824   2.027   2.018
  439EMI    H0P 8338   2.953   1.967   2.125
  439EMI    H0Q 8339   2.978   1.997   1.952
  439EMI    N02 8340   2.986   1.763   1.915
  439EMI    H0E 8341   2.790   1.818   1.922
  440EMI    C01 8342   3.910   2.609   1.805
  440EMI    C04 8343   4.085   2.489   1.849
  440EMI    C03 8344   4.123   2.615   1.837
  440EMI    H07 8345   3.808   2.641   1.792
  440EMI    H09 8346   4.142   2.403   1.877
  440EMI    H08 8347   4.219   2.660   1.852
  440EMI    C05 8348   4.010   2.836   1.799
  440EMI    H0B 8349   3.909   2.871   1.785
  440EMI    H0C 8350   4.049   2.880   1.890
  440EMI    H0D 8351   4.070   2.866   1.715
  440EMI    N00 8352   4.012   2.691   1.808
  440EMI    C06 8353   3.871   2.364   1.820
  440EMI    H0F 8354   3.912   2.301   1.742
  440EMI    C0N 8355   3.862   2.300   1.957
  440EMI    H0O 8356   3.772   2.241   1.968
  440EMI    H0P 8357   3.948   2.236   1.974
  440EMI    H0Q 8358   3.862   2.376   2.034
  440EMI    N02 8359   3.951   2.486   1.822
  440EMI    H0E 8360   3.775   2.396   1.785
  441EMI    C01 8361   4.866   2.793   2.645
  441EMI    C04 8362   4.663   2.803   2.722
  441EMI    C03 8363   4.685   2.678   2.682
  441EMI    H07 8364   4.968   2.821   2.623
  441EMI    H09 8365   4.582   2.845   2.776
  441EMI    H08 8366   4.624   2.593   2.695
  441EMI    C05 8367   4.892   2.547   2.621
  441EMI    H0B 8368   4.966   2.560   2.543
  441EMI    H0C 8369   4.940   2.521   2.715
  441EMI    H0D 8370   4.825   2.466   2.594
  441EMI    N00 8371   4.817   2.671   2.640
  441EMI    C06 8372   4.799   3.011   2.745
  441EMI    H0F 8373   4.745   3.081   2.683
  441EMI    C0N 8374   4.762   3.022   2.892
  441EMI    H0O 8375   4.779   3.122   2.929
  441EMI    H0P 8376   4.658   2.999   2.912
  441EMI    H0Q 8377   4.823   2.954   2.952
  441EMI    N02 8378   4.777   2.875   2.696
  441EMI    H0E 8379   4.905   3.030   2.735
  442EMI    C01 8380   3.280   4.854   2.565
  442EMI    C04 8381   3.315   4.652   2.495
  442EMI    C03 8382   3.388   4.735   2.420
  442EMI    H07 8383   3.257   4.932   2.632
  442EMI    H09 8384   3.316   4.546   2.499
  442EMI    H08 8385   3.464   4.716   2.348
  442EMI    C05 8386   3.458   4.974   2.447
  442EMI    H0B 8387   3.447   0.001   2.526
  442EMI    H0C 8388   3.560   4.939   2.450
  442EMI    H0D 8389   3.437   5.016   2.350
  442EMI    N00 8390   3.370   4.861   2.470
  442EMI    C06 8391   3.168   4.683   2.700
  442EMI    H0F 8392   3.064   4.698   2.682
  442EMI    C0N 8393   3.198   4.537   2.722
  442EMI    H0O 8394   3.153   4.499   2.813
  442EMI    H0P 8395   3.159   4.479   2.640
  442EMI    H0Q 8396   3.305   4.521   2.729
  442EMI    N02 8397   3.244   4.730   2.584
  442EMI    H0E 8398   3.204   4.736   2.787
  443EMI    C01 8399   1.881   4.184   4.507
  443EMI    C04 8400   1.819   4.125   4.706
  443EMI    C03 8401   1.807   4.019   4.625
  443EMI    H07 8402   1.926   4.241   4.428
  443EMI    H09 8403   1.794   4.133   4.809
  443EMI    H08 8404   1.772   3.921   4.646
  443EMI    C05 8405   1.846   3.967   4.383
  443EMI    H0B 8406   1.938   3.911   4.378
  443EMI    H0C 8407   1.767   3.895   4.393
  443EMI    H0D 8408   1.834   4.023   4.292
  443EMI    N00 8409   1.845   4.057   4.499
  443EMI    C06 8410   1.914   4.359   4.683
  443EMI    H0F 8411   1.835   4.432   4.678
  443EMI    C0N 8412   1.965   4.349   4.826
  443EMI    H0O 8413   2.019   4.439   4.854
  443EMI    H0P 8414   1.882   4.338   4.895
  443EMI    H0Q 8415   2.032   4.264   4.838
  443EMI    N02 8416   1.867   4.229   4.630
  443EMI    H0E 8417   1.999   4.390   4.623
  444EMI    C01 8418   4.980   2.085   1.006
  444EMI    C04 8419   4.775   2.141   0.963
  444EMI    C03 8420   4.783   2.112   1.092
  444EMI    H07 8421   0.039   2.069   0.993
  444EMI    H09 8422   4.690   2.167   0.905
  444EMI    H08 8423   4.706   2.111   1.165
  444EMI    C05 8424   4.960   2.024   1.247
  444EMI    H0B 8425   0.022   2.030   1.250
  444EMI    H0C 8426   4.921   2.089   1.324
  444EMI    H0D 8427   4.926   1.924   1.266
  444EMI    N00 8428   4.911   2.071   1.117
  444EMI    C06 8429   4.935   2.136   0.766
  444EMI    H0F 8430   4.975   2.044   0.727
  444EMI    C0N 8431   4.819   2.180   0.679
  444EMI    H0O 8432   4.853   2.191   0.576
  444EMI    H0P 8433   4.739   2.107   0.680
  444EMI    H0Q 8434   4.783   2.276   0.711
  444EMI    N02 8435   4.899   2.121   0.908
  444EMI    H0E 8436   5.008   2.215   0.764
  445EMI    C01 8437   4.862   4.120   4.068
  445EMI    C04 8438   4.662   4.193   4.022
  445EMI    C03 8439   4.669   4.174   4.154
  445EMI    H07 8440   4.964   4.088   4.057
  445EMI    H09 8441   4.583   4.232   3.964
  445EMI    H08 8442   4.599   4.194   4.232
  445EMI    C05 8443   4.849   4.101   4.316
  445EMI    H0B 8444   4.942   4.155   4.329
  445EMI    H0C 8445   4.779   4.132   4.392
  445EMI    H0D 8446   4.870   3.995   4.328
  445EMI    N00 8447   4.797   4.128   4.182
  445EMI    C06 8448   4.825   4.181   3.828
  445EMI    H0F 8449   4.807   4.091   3.772
  445EMI    C0N 8450   4.749   4.289   3.755
  445EMI    H0O 8451   4.790   4.299   3.656
  445EMI    H0P 8452   4.646   4.260   3.745
  445EMI    H0Q 8453   4.756   4.384   3.807
  445EMI    N02 8454   4.785   4.159   3.969
  445EMI    H0E 8455   4.932   4.203   3.827
  446EMI    C01 8456   0.233   2.477   1.679
  446EMI    C04 8457   0.257   2.623   1.520
  446EMI    C03 8458   0.258   2.502   1.465
  446EMI    H07 8459   0.221   2.434   1.777
  446EMI    H09 8460   0.261   2.719   1.471
  446EMI    H08 8461   0.261   2.478   1.362
  446EMI    C05 8462   0.228   2.265   1.543
  446EMI    H0B 8463   0.138   2.231   1.592
  446EMI    H0C 8464   0.218   2.246   1.438
  446EMI    H0D 8465   0.312   2.213   1.583
  446EMI    N00 8466   0.241   2.410   1.565
  446EMI    C06 8467   0.186   2.714   1.745
  446EMI    H0F 8468   0.249   2.721   1.831
  446EMI    C0N 8469   0.181   2.850   1.679
  446EMI    H0O 8470   0.142   2.923   1.748
  446EMI    H0P 8471   0.279   2.883   1.651
  446EMI    H0Q 8472   0.115   2.851   1.593
  446EMI    N02 8473   0.230   2.606   1.654
  446EMI    H0E 8474   0.086   2.693   1.777
  447EMI    C01 8475   0.642   3.439   3.759
  447EMI    C04 8476   0.528   3.280   3.854
  447EMI    C03 8477   0.620   3.321   3.941
  447EMI    H07 8478   0.675   3.508   3.685
  447EMI    H09 8479   0.454   3.204   3.861
  447EMI    H08 8480   0.638   3.285   4.040
  447EMI    C05 8481   0.808   3.491   3.937
  447EMI    H0B 8482   0.780   3.593   3.952
  447EMI    H0C 8483   0.837   3.443   4.029
  447EMI    H0D 8484   0.890   3.486   3.867
  447EMI    N00 8485   0.693   3.421   3.879
  447EMI    C06 8486   0.456   3.347   3.621
  447EMI    H0F 8487   0.493   3.269   3.557
  447EMI    C0N 8488   0.312   3.318   3.658
  447EMI    H0O 8489   0.247   3.341   3.574
  447EMI    H0P 8490   0.299   3.213   3.680
  447EMI    H0Q 8491   0.279   3.377   3.742
  447EMI    N02 8492   0.543   3.354   3.739
  447EMI    H0E 8493   0.459   3.442   3.570
  448EMI    C01 8494   4.289   4.340   2.653
  448EMI    C04 8495   4.333   4.551   2.676
  448EMI    C03 8496   4.270   4.535   2.561
  448EMI    H07 8497   4.276   4.237   2.679
  448EMI    H09 8498   4.375   4.639   2.720
  448EMI    H08 8499   4.246   4.607   2.486
  448EMI    C05 8500   4.172   4.344   2.430
  448EMI    H0B 8501   4.083   4.292   2.461
  448EMI    H0C 8502   4.146   4.425   2.364
  448EMI    H0D 8503   4.238   4.278   2.376
  448EMI    N00 8504   4.242   4.401   2.546
  448EMI    C06 8505   4.393   4.401   2.871
  448EMI    H0F 8506   4.501   4.409   2.872
  448EMI    C0N 8507   4.330   4.496   2.971
  448EMI    H0O 8508   4.361   4.476   3.072
  448EMI    H0P 8509   4.359   4.599   2.949
  448EMI    H0Q 8510   4.222   4.488   2.966
  448EMI    N02 8511   4.344   4.427   2.735
  448EMI    H0E 8512   4.365   4.300   2.897
  449EMI    C01 8513   4.813   4.852   1.958
  449EMI    C04 8514   4.671   4.727   2.062
  449EMI    C03 8515   4.790   4.668   2.070
  449EMI    H07 8516   4.856   4.935   1.905
  449EMI    H09 8517   4.576   4.700   2.105
  449EMI    H08 8518   4.820   4.578   2.120
  449EMI    C05 8519   5.021   4.718   1.975
  449EMI    H0B 8520   0.020   4.797   1.916
  449EMI    H0C 8521   0.029   4.709   2.068
  449EMI    H0D 8522   5.030   4.626   1.919
  449EMI    N00 8523   4.879   4.746   1.999
  449EMI    C06 8524   4.576   4.929   1.939
  449EMI    H0F 8525   4.526   4.889   1.852
  449EMI    C0N 8526   4.478   4.954   2.051
  449EMI    H0O 8527   4.415   5.039   2.029
  449EMI    H0P 8528   4.414   4.869   2.067
  449EMI    H0Q 8529   4.531   4.974   2.143
  449EMI    N02 8530   4.684   4.837   1.981
  449EMI    H0E 8531   4.622   5.023   1.914
  450EMI    C01 8532   4.779   0.290   0.851
  450EMI    C04 8533   4.742   0.090   0.928
  450EMI    C03 8534   4.685   0.098   0.807
  450EMI    H07 8535   4.810   0.392   0.846
  450EMI    H09 8536   4.740   0.012   1.001
  450EMI    H08 8537   4.627   0.027   0.753
  450EMI    C05 8538   4.655   0.281   0.635
  450EMI    H0B 8539   4.723   0.355   0.595
  450EMI    H0C 8540   4.641   0.203   0.562
  450EMI    H0D 8541   4.560   0.328   0.656
  450EMI    N00 8542   4.709   0.226   0.760
  450EMI    C06 8543   4.864   0.251   1.083
  450EMI    H0F 8544   4.792   0.299   1.148
  450EMI    C0N 8545   4.927   0.133   1.155
  450EMI    H0O 8546   4.992   0.168   1.234
  450EMI    H0P 8547   4.852   0.071   1.201
  450EMI    H0Q 8548   4.987   0.072   1.088
  450EMI    N02 8549   4.796   0.213   0.957
  450EMI    H0E 8550   4.943   0.318   1.056
  451EMI    C01 8551   3.802   2.986   3.145
  451EMI    C04 8552   3.891   3.032   3.335
  451EMI    C03 8553   3.919   3.132   3.252
  451EMI    H07 8554   3.760   2.932   3.062
  451EMI    H09 8555   3.930   3.008   3.431
  451EMI    H08 8556   3.987   3.215   3.262
  451EMI    C05 8557   3.841   3.193   3.019
  451EMI    H0B 8558   3.752   3.172   2.963
  451EMI    H0C 8559   3.844   3.296   3.050
  451EMI    H0D 8560   3.925   3.174   2.954
  451EMI    N00 8561   3.852   3.106   3.135
  451EMI    C06 8562   3.780   2.805   3.316
  451EMI    H0F 8563   3.864   2.737   3.318
  451EMI    C0N 8564   3.713   2.817   3.451
  451EMI    H0O 8565   3.659   2.727   3.474
  451EMI    H0P 8566   3.788   2.833   3.528
  451EMI    H0Q 8567   3.644   2.900   3.451
  451EMI    N02 8568   3.824   2.936   3.264
  451EMI    H0E 8569   3.713   2.763   3.243
  452EMI    C01 8570   2.943   1.507   2.100
  452EMI    C04 8571   2.858   1.373   2.244
  452EMI    C03 8572   2.977   1.413   2.290
  452EMI    H07 8573   2.967   1.538   2.001
  452EMI    H09 8574   2.792   1.297   2.280
  452EMI    H08 8575   3.035   1.379   2.372
  452EMI    C05 8576   3.157   1.569   2.214
  452EMI    H0B 8577   3.149   1.674   2.198
  452EMI    H0C 8578   3.194   1.551   2.314
  452EMI    H0D 8579   3.227   1.523   2.145
  452EMI    N00 8580   3.027   1.503   2.201
  452EMI    C06 8581   2.717   1.418   2.040
  452EMI    H0F 8582   2.755   1.415   1.940
  452EMI    C0N 8583   2.655   1.282   2.069
  452EMI    H0O 8584   2.583   1.254   1.994
  452EMI    H0P 8585   2.730   1.204   2.073
  452EMI    H0Q 8586   2.604   1.283   2.164
  452EMI    N02 8587   2.832   1.443   2.130
  452EMI    H0E 8588   2.642   1.494   2.055
  453EMI    C01 8589   1.397   1.976   4.450
  453EMI    C04 8590   1.424   2.190   4.428
  453EMI    C03 8591   1.300   2.161   4.393
  453EMI    H07 8592   1.414   1.873   4.475
  453EMI    H09 8593   1.470   2.287   4.431
  453EMI    H08 8594   1.221   2.227   4.365
  453EMI    C05 8595   1.163   1.952   4.365
  453EMI    H0B 8596   1.176   1.847   4.389
  453EMI    H0C 8597   1.083   1.994   4.423
  453EMI    H0D 8598   1.144   1.966   4.260
  453EMI    N00 8599   1.285   2.025   4.400
  453EMI    C06 8600   1.624   2.057   4.513
  453EMI    H0F 8601   1.692   2.059   4.429
  453EMI    C0N 8602   1.664   2.157   4.620
  453EMI    H0O 8603   1.733   2.113   4.690
  453EMI    H0P 8604   1.715   2.242   4.580
  453EMI    H0Q 8605   1.578   2.194   4.674
  453EMI    N02 8606   1.486   2.072   4.462
  453EMI    H0E 8607   1.624   1.959   4.557
  454EMI    C01 8608   0.993   3.039   3.301
  454EMI    C04 8609   0.807   3.148   3.289
  454EMI    C03 8610   0.780   3.031   3.344
  454EMI    H07 8611   1.097   3.014   3.299
  454EMI    H09 8612   0.742   3.229   3.270
  454EMI    H08 8613   0.686   2.996   3.382
  454EMI    C05 8614   0.916   2.829   3.408
  454EMI    H0B 8615   1.008   2.829   3.463
  454EMI    H0C 8616   0.834   2.812   3.477
  454EMI    H0D 8617   0.916   2.752   3.333
  454EMI    N00 8618   0.899   2.962   3.350
  454EMI    C06 8619   1.010   3.270   3.202
  454EMI    H0F 8620   1.034   3.246   3.100
  454EMI    C0N 8621   0.923   3.395   3.197
  454EMI    H0O 8622   0.978   3.480   3.157
  454EMI    H0P 8623   0.837   3.380   3.133
  454EMI    H0Q 8624   0.883   3.424   3.293
  454EMI    N02 8625   0.941   3.154   3.261
  454EMI    H0E 8626   1.096   3.291   3.262
  455EMI    C01 8627   3.912   2.732   1.472
  455EMI    C04 8628   3.758   2.855   1.560
  455EMI    C03 8629   3.719   2.729   1.568
  455EMI    H07 8630   3.999   2.704   1.418
  455EMI    H09 8631   3.704   2.944   1.584
  455EMI    H08 8632   3.624   2.690   1.596
  455EMI    C05 8633   3.815   2.505   1.497
  455EMI    H0B 8634   3.912   2.461   1.513
  455EMI    H0C 8635   3.738   2.461   1.557
  455EMI    H0D 8636   3.786   2.488   1.395
  455EMI    N00 8637   3.818   2.651   1.514
  455EMI    C06 8638   3.957   2.974   1.457
  455EMI    H0F 8639   3.927   3.006   1.359
  455EMI    C0N 8640   3.945   3.086   1.557
  455EMI    H0O 8641   4.016   3.163   1.531
  455EMI    H0P 8642   3.846   3.129   1.554
  455EMI    H0Q 8643   3.966   3.053   1.657
  455EMI    N02 8644   3.878   2.856   1.493
  455EMI    H0E 8645   4.061   2.942   1.455
  456EMI    C01 8646   3.197   2.832   1.630
  456EMI    C04 8647   3.006   2.834   1.735
  456EMI    C03 8648   3.009   2.941   1.657
  456EMI    H07 8649   3.296   2.805   1.598
  456EMI    H09 8650   2.931   2.803   1.803
  456EMI    H08 8651   2.938   3.018   1.645
  456EMI    C05 8652   3.167   3.032   1.485
  456EMI    H0B 8653   3.249   2.991   1.427
  456EMI    H0C 8654   3.085   3.059   1.422
  456EMI    H0D 8655   3.205   3.117   1.537
  456EMI    N00 8656   3.128   2.936   1.587
  456EMI    C06 8657   3.176   2.656   1.804
  456EMI    H0F 8658   3.231   2.699   1.886
  456EMI    C0N 8659   3.066   2.561   1.852
  456EMI    H0O 8660   3.087   2.513   1.946
  456EMI    H0P 8661   2.972   2.611   1.869
  456EMI    H0Q 8662   3.052   2.483   1.779
  456EMI    N02 8663   3.129   2.770   1.724
  456EMI    H0E 8664   3.241   2.601   1.738
  457EMI    C01 8665   2.735   4.535   0.756
  457EMI    C04 8666   2.856   4.627   0.910
  457EMI    C03 8667   2.919   4.517   0.869
  457EMI    H07 8668   2.658   4.517   0.685
  457EMI    H09 8669   2.892   4.700   0.977
  457EMI    H08 8670   3.017   4.486   0.894
  457EMI    C05 8671   2.848   4.314   0.735
  457EMI    H0B 8672   2.811   4.304   0.634
  457EMI    H0C 8673   2.952   4.284   0.734
  457EMI    H0D 8674   2.802   4.245   0.802
  457EMI    N00 8675   2.835   4.453   0.781
  457EMI    C06 8676   2.642   4.748   0.850
  457EMI    H0F 8677   2.565   4.715   0.917
  457EMI    C0N 8678   2.699   4.880   0.899
  457EMI    H0O 8679   2.621   4.953   0.912
  457EMI    H0P 8680   2.748   4.869   0.995
  457EMI    H0Q 8681   2.770   4.920   0.829
  457EMI    N02 8682   2.740   4.638   0.839
  457EMI    H0E 8683   2.605   4.768   0.750
  458EMI    C01 8684   2.154   3.352   3.554
  458EMI    C04 8685   2.210   3.482   3.721
  458EMI    C03 8686   2.084   3.511   3.685
  458EMI    H07 8687   2.153   3.267   3.488
  458EMI    H09 8688   2.266   3.512   3.807
  458EMI    H08 8689   2.010   3.572   3.731
  458EMI    C05 8690   1.913   3.410   3.529
  458EMI    H0B 8691   1.911   3.326   3.461
  458EMI    H0C 8692   1.848   3.384   3.612
  458EMI    H0D 8693   1.877   3.498   3.481
  458EMI    N00 8694   2.049   3.427   3.582
  458EMI    C06 8695   2.382   3.310   3.643
  458EMI    H0F 8696   2.425   3.313   3.545
  458EMI    C0N 8697   2.479   3.367   3.746
  458EMI    H0O 8698   2.571   3.310   3.748
  458EMI    H0P 8699   2.502   3.471   3.728
  458EMI    H0Q 8700   2.436   3.363   3.846
  458EMI    N02 8701   2.253   3.381   3.637
  458EMI    H0E 8702   2.357   3.208   3.669
  459EMI    C01 8703   1.469   1.781   2.078
  459EMI    C04 8704   1.476   1.657   2.254
  459EMI    C03 8705   1.589   1.725   2.251
  459EMI    H07 8706   1.432   1.833   1.991
  459EMI    H09 8707   1.442   1.589   2.328
  459EMI    H08 8708   1.669   1.727   2.321
  459EMI    C05 8709   1.676   1.915   2.115
  459EMI    H0B 8710   1.623   2.006   2.090
  459EMI    H0C 8711   1.733   1.932   2.205
  459EMI    H0D 8712   1.743   1.882   2.039
  459EMI    N00 8713   1.580   1.809   2.143
  459EMI    C06 8714   1.265   1.642   2.116
  459EMI    H0F 8715   1.266   1.571   2.035
  459EMI    C0N 8716   1.202   1.582   2.241
  459EMI    H0O 8717   1.099   1.555   2.226
  459EMI    H0P 8718   1.252   1.492   2.273
  459EMI    H0Q 8719   1.202   1.654   2.321
  459EMI    N02 8720   1.402   1.689   2.143
  459EMI    H0E 8721   1.204   1.727   2.093
  460EMI    C01 8722   2.969   4.794   4.762
  460EMI    C04 8723   2.944   4.688   4.949
  460EMI    C03 8724   3.066   4.660   4.903
  460EMI    H07 8725   2.951   4.859   4.678
  460EMI    H09 8726   2.896   4.659   5.040
  460EMI    H08 8727   3.145   4.602   4.945
  460EMI    C05 8728   3.207   4.738   4.709
  460EMI    H0B 8729   3.192   4.792   4.617
  460EMI    H0C 8730   3.281   4.790   4.768
  460EMI    H0D 8731   3.243   4.638   4.689
  460EMI    N00 8732   3.082   4.730   4.786
  460EMI    C06 8733   2.745   4.823   4.875
  460EMI    H0F 8734   2.672   4.744   4.862
  460EMI    C0N 8735   2.730   4.890   5.010
  460EMI    H0O 8736   2.632   4.934   5.021
  460EMI    H0P 8737   2.744   4.820   0.045
  460EMI    H0Q 8738   2.804   4.968   5.022
  460EMI    N02 8739   2.881   4.767   4.857
  460EMI    H0E 8740   2.726   4.895   4.798
  461EMI    C01 8741   3.537   2.985   0.618
  461EMI    C04 8742   3.693   2.951   0.473
  461EMI    C03 8743   3.746   3.021   0.574
  461EMI    H07 8744   3.446   2.974   0.672
  461EMI    H09 8745   3.739   2.907   0.388
  461EMI    H08 8746   3.848   3.047   0.591
  461EMI    C05 8747   3.667   3.080   0.806
  461EMI    H0B 8748   3.574   3.078   0.860
  461EMI    H0C 8749   3.733   3.005   0.849
  461EMI    H0D 8750   3.713   3.176   0.811
  461EMI    N00 8751   3.647   3.037   0.667
  461EMI    C06 8752   3.468   2.846   0.422
  461EMI    H0F 8753   3.403   2.908   0.362
  461EMI    C0N 8754   3.538   2.749   0.330
  461EMI    H0O 8755   3.475   2.663   0.313
  461EMI    H0P 8756   3.560   2.795   0.235
  461EMI    H0Q 8757   3.631   2.712   0.372
  461EMI    N02 8758   3.560   2.931   0.500
  461EMI    H0E 8759   3.414   2.784   0.492
  462EMI    C01 8760   1.125   1.302   0.254
  462EMI    C04 8761   1.183   1.095   0.217
  462EMI    C03 8762   1.276   1.152   0.293
  462EMI    H07 8763   1.073   1.395   0.256
  462EMI    H09 8764   1.175   0.994   0.183
  462EMI    H08 8765   1.365   1.112   0.334
  462EMI    C05 8766   1.312   1.374   0.405
  462EMI    H0B 8767   1.251   1.406   0.488
  462EMI    H0C 8768   1.399   1.326   0.448
  462EMI    H0D 8769   1.341   1.462   0.349
  462EMI    N00 8770   1.238   1.281   0.320
  462EMI    C06 8771   0.967   1.168   0.111
  462EMI    H0F 8772   0.994   1.163   0.007
  462EMI    C0N 8773   0.891   1.046   0.157
  462EMI    H0O 8774   0.794   1.042   0.109
  462EMI    H0P 8775   0.944   0.954   0.137
  462EMI    H0Q 8776   0.874   1.051   0.263
  462EMI    N02 8777   1.089   1.192   0.190
  462EMI    H0E 8778   0.905   1.255   0.123
  463EMI    C01 8779   1.610   2.827   4.569
  463EMI    C04 8780   1.726   2.682   4.679
  463EMI    C03 8781   1.787   2.800   4.690
  463EMI    H07 8782   1.529   2.871   4.516
  463EMI    H09 8783   1.749   2.589   4.725
  463EMI    H08 8784   1.873   2.828   4.746
  463EMI    C05 8785   1.736   3.036   4.618
  463EMI    H0B 8786   1.654   3.083   4.670
  463EMI    H0C 8787   1.829   3.059   4.668
  463EMI    H0D 8788   1.739   3.072   4.516
  463EMI    N00 8789   1.713   2.891   4.620
  463EMI    C06 8790   1.506   2.602   4.575
  463EMI    H0F 8791   1.509   2.575   4.470
  463EMI    C0N 8792   1.520   2.478   4.662
  463EMI    H0O 8793   1.453   2.400   4.628
  463EMI    H0P 8794   1.619   2.436   4.661
  463EMI    H0Q 8795   1.492   2.502   4.764
  463EMI    N02 8796   1.613   2.700   4.601
  463EMI    H0E 8797   1.411   2.647   4.600
  464EMI    C01 8798   3.963   4.291   1.359
  464EMI    C04 8799   3.945   4.358   1.564
  464EMI    C03 8800   3.876   4.245   1.552
  464EMI    H07 8801   3.999   4.282   1.258
  464EMI    H09 8802   3.970   4.416   1.651
  464EMI    H08 8803   3.830   4.186   1.629
  464EMI    C05 8804   3.812   4.093   1.361
  464EMI    H0B 8805   3.870   4.056   1.279
  464EMI    H0C 8806   3.807   4.016   1.436
  464EMI    H0D 8807   3.713   4.121   1.329
  464EMI    N00 8808   3.882   4.207   1.420
  464EMI    C06 8809   4.095   4.495   1.414
  464EMI    H0F 8810   4.045   4.589   1.398
  464EMI    C0N 8811   4.196   4.503   1.527
  464EMI    H0O 8812   4.281   4.562   1.498
  464EMI    H0P 8813   4.153   4.551   1.615
  464EMI    H0Q 8814   4.231   4.405   1.557
  464EMI    N02 8815   3.997   4.388   1.440
  464EMI    H0E 8816   4.149   4.467   1.325
  465EMI    C01 8817   3.318   2.793   1.033
  465EMI    C04 8818   3.297   2.961   0.897
  465EMI    C03 8819   3.280   2.847   0.828
  465EMI    H07 8820   3.327   2.734   1.121
  465EMI    H09 8821   3.296   3.063   0.867
  465EMI    H08 8822   3.263   2.826   0.725
  465EMI    C05 8823   3.288   2.600   0.878
  465EMI    H0B 8824   3.274   2.541   0.967
  465EMI    H0C 8825   3.209   2.581   0.808
  465EMI    H0D 8826   3.381   2.568   0.834
  465EMI    N00 8827   3.297   2.742   0.914
  465EMI    C06 8828   3.365   3.016   1.135
  465EMI    H0F 8829   3.466   3.052   1.121
  465EMI    C0N 8830   3.264   3.129   1.148
  465EMI    H0O 8831   3.274   3.176   1.245
  465EMI    H0P 8832   3.284   3.205   1.073
  465EMI    H0Q 8833   3.163   3.095   1.136
  465EMI    N02 8834   3.332   2.923   1.025
  465EMI    H0E 8835   3.365   2.958   1.225
  466EMI    C01 8836   1.305   2.543   0.821
  466EMI    C04 8837   1.352   2.425   0.997
  466EMI    C03 8838   1.336   2.341   0.895
  466EMI    H07 8839   1.282   2.625   0.756
  466EMI    H09 8840   1.373   2.401   1.098
  466EMI    H08 8841   1.339   2.234   0.893
  466EMI    C05 8842   1.251   2.361   0.659
  466EMI    H0B 8843   1.300   2.402   0.573
  466EMI    H0C 8844   1.262   2.253   0.658
  466EMI    H0D 8845   1.145   2.376   0.649
  466EMI    N00 8846   1.300   2.416   0.785
  466EMI    C06 8847   1.341   2.672   1.035
  466EMI    H0F 8848   1.246   2.695   1.079
  466EMI    C0N 8849   1.444   2.648   1.143
  466EMI    H0O 8850   1.469   2.741   1.191
  466EMI    H0P 8851   1.405   2.583   1.220
  466EMI    H0Q 8852   1.534   2.604   1.104
  466EMI    N02 8853   1.329   2.552   0.950
  466EMI    H0E 8854   1.371   2.755   0.973
  467EMI    C01 8855   0.479   2.089   0.974
  467EMI    C04 8856   0.589   2.256   0.890
  467EMI    C03 8857   0.503   2.304   0.979
  467EMI    H07 8858   0.436   1.992   0.981
  467EMI    H09 8859   0.650   2.308   0.819
  467EMI    H08 8860   0.475   2.406   0.997
  467EMI    C05 8861   0.316   2.204   1.117
  467EMI    H0B 8862   0.270   2.109   1.132
  467EMI    H0C 8863   0.336   2.255   1.210
  467EMI    H0D 8864   0.243   2.263   1.062
  467EMI    N00 8865   0.434   2.197   1.032
  467EMI    C06 8866   0.646   2.021   0.808
  467EMI    H0F 8867   0.711   2.077   0.742
  467EMI    C0N 8868   0.727   1.933   0.901
  467EMI    H0O 8869   0.797   1.874   0.843
  467EMI    H0P 8870   0.784   1.995   0.969
  467EMI    H0Q 8871   0.663   1.869   0.960
  467EMI    N02 8872   0.575   2.119   0.890
  467EMI    H0E 8873   0.575   1.972   0.743
  468EMI    C01 8874   1.151   4.945   1.429
  468EMI    C04 8875   1.252   4.823   1.282
  468EMI    C03 8876   1.122   4.796   1.275
  468EMI    H07 8877   1.133   5.011   1.511
  468EMI    H09 8878   1.333   4.777   1.231
  468EMI    H08 8879   1.069   4.723   1.217
  468EMI    C05 8880   0.912   4.899   1.374
  468EMI    H0B 8881   0.886   4.937   1.471
  468EMI    H0C 8882   0.876   4.970   1.300
  468EMI    H0D 8883   0.860   4.806   1.357
  468EMI    N00 8884   1.057   4.881   1.362
  468EMI    C06 8885   1.395   4.990   1.410
  468EMI    H0F 8886   1.439   4.939   1.494
  468EMI    C0N 8887   1.495   5.000   1.297
  468EMI    H0O 8888   1.584   0.008   1.329
  468EMI    H0P 8889   1.526   4.902   1.261
  468EMI    H0Q 8890   1.452   0.011   1.216
  468EMI    N02 8891   1.269   4.920   1.378
  468EMI    H0E 8892   1.367   0.046   1.435
  469EMI    C01 8893   1.964   0.959   4.803
  469EMI    C04 8894   2.032   1.092   4.644
  469EMI    C03 8895   2.139   1.030   4.695
  469EMI    H07 8896   1.902   0.910   4.875
  469EMI    H09 8897   2.023   1.164   4.566
  469EMI    H08 8898   2.243   1.036   4.669
  469EMI    C05 8899   2.178   0.884   4.900
  469EMI    H0B 8900   2.118   0.833   4.973
  469EMI    H0C 8901   2.245   0.814   4.852
  469EMI    H0D 8902   2.237   0.959   4.949
  469EMI    N00 8903   2.095   0.953   4.801
  469EMI    C06 8904   1.783   1.089   4.693
  469EMI    H0F 8905   1.779   1.197   4.695
  469EMI    C0N 8906   1.728   1.029   4.566
  469EMI    H0O 8907   1.621   1.036   4.563
  469EMI    H0P 8908   1.767   1.088   4.484
  469EMI    H0Q 8909   1.759   0.926   4.554
  469EMI    N02 8910   1.922   1.046   4.715
  469EMI    H0E 8911   1.727   1.054   4.778
  470EMI    C01 8912   2.279   4.576   2.577
  470EMI    C04 8913   2.484   4.572   2.508
  470EMI    C03 8914   2.448   4.699   2.520
  470EMI    H07 8915   2.182   4.547   2.611
  470EMI    H09 8916   2.575   4.529   2.473
  470EMI    H08 8917   2.502   4.788   2.496
  470EMI    C05 8918   2.225   4.815   2.571
  470EMI    H0B 8919   2.136   4.784   2.624
  470EMI    H0C 8920   2.271   4.896   2.624
  470EMI    H0D 8921   2.199   4.847   2.471
  470EMI    N00 8922   2.316   4.700   2.560
  470EMI    C06 8923   2.365   4.349   2.530
  470EMI    H0F 8924   2.315   4.323   2.438
  470EMI    C0N 8925   2.499   4.280   2.529
  470EMI    H0O 8926   2.490   4.181   2.570
  470EMI    H0P 8927   2.536   4.271   2.428
  470EMI    H0Q 8928   2.571   4.333   2.587
  470EMI    N02 8929   2.374   4.495   2.537
  470EMI    H0E 8930   2.314   4.316   2.619
  471EMI    C01 8931   3.845   3.422   4.820
  471EMI    C04 8932   3.640   3.387   4.883
  471EMI    C03 8933   3.701   3.269   4.876
  471EMI    H07 8934   3.936   3.471   4.791
  471EMI    H09 8935   3.538   3.407   4.909
  471EMI    H08 8936   3.660   3.171   4.898
  471EMI    C05 8937   3.938   3.191   4.828
  471EMI    H0B 8938   4.035   3.235   4.849
  471EMI    H0C 8939   3.920   3.110   4.897
  471EMI    H0D 8940   3.941   3.150   4.727
  471EMI    N00 8941   3.832   3.292   4.839
  471EMI    C06 8942   3.703   3.628   4.825
  471EMI    H0F 8943   3.735   3.649   4.726
  471EMI    C0N 8944   3.556   3.666   4.826
  471EMI    H0O 8945   3.543   3.770   4.801
  471EMI    H0P 8946   3.502   3.609   4.752
  471EMI    H0Q 8947   3.510   3.649   4.922
  471EMI    N02 8948   3.731   3.483   4.845
  471EMI    H0E 8949   3.758   3.685   4.898
  472EMI    C01 8950   4.871   3.161   1.356
  472EMI    C04 8951   4.963   2.976   1.420
  472EMI    C03 8952   0.011   3.071   1.427
  472EMI    H07 8953   4.799   3.233   1.323
  472EMI    H09 8954   4.971   2.876   1.450
  472EMI    H08 8955   0.111   3.065   1.463
  472EMI    C05 8956   0.004   3.323   1.414
  472EMI    H0B 8957   4.972   3.397   1.393
  472EMI    H0C 8958   0.035   3.333   1.517
  472EMI    H0D 8959   0.087   3.336   1.347
  472EMI    N00 8960   4.993   3.190   1.395
  472EMI    C06 8961   4.713   2.970   1.379
  472EMI    H0F 8962   4.708   2.908   1.291
  472EMI    C0N 8963   4.683   2.891   1.506
  472EMI    H0O 8964   4.588   2.839   1.497
  472EMI    H0P 8965   4.759   2.819   1.530
  472EMI    H0Q 8966   4.679   2.959   1.589
  472EMI    N02 8967   4.846   3.035   1.379
  472EMI    H0E 8968   4.641   3.050   1.372
  473EMI    C01 8969   4.140   0.368   1.001
  473EMI    C04 8970   4.066   0.297   0.808
  473EMI    C03 8971   4.165   0.383   0.785
  473EMI    H07 8972   4.152   0.383   1.107
  473EMI    H09 8973   4.006   0.241   0.739
  473EMI    H08 8974   4.205   0.417   0.692
  473EMI    C05 8975   4.318   0.526   0.928
  473EMI    H0B 8976   4.341   0.529   1.034
  473EMI    H0C 8977   4.406   0.496   0.875
  473EMI    H0D 8978   4.285   0.623   0.895
  473EMI    N00 8979   4.211   0.427   0.907
  473EMI    C06 8980   3.948   0.211   1.018
  473EMI    H0F 8981   3.863   0.273   1.034
  473EMI    C0N 8982   3.909   0.084   0.943
  473EMI    H0O 8983   3.846   0.022   1.005
  473EMI    H0P 8984   3.854   0.107   0.853
  473EMI    H0Q 8985   3.996   0.026   0.916
  473EMI    N02 8986   4.048   0.292   0.945
  473EMI    H0E 8987   3.993   0.182   1.112
  474EMI    C01 8988   4.855   0.778   4.977
  474EMI    C04 8989   4.832   0.986   4.918
  474EMI    C03 8990   4.924   0.932   4.839
  474EMI    H07 8991   4.840   0.685   5.028
  474EMI    H09 8992   4.792   1.085   4.919
  474EMI    H08 8993   4.977   0.978   4.759
  474EMI    C05 8994   5.023   0.699   4.811
  474EMI    H0B 8995   5.030   0.612   4.875
  474EMI    H0C 8996   4.980   0.665   4.718
  474EMI    H0D 8997   0.077   0.736   4.794
  474EMI    N00 8998   4.937   0.799   4.876
  474EMI    C06 8999   4.682   0.905   0.060
  474EMI    H0F 9000   4.721   0.966   0.140
  474EMI    C0N 9001   4.554   0.964   0.003
  474EMI    H0O 9002   4.481   0.977   0.082
  474EMI    H0P 9003   4.571   1.061   5.002
  474EMI    H0Q 9004   4.511   0.896   4.976
  474EMI    N02 9005   4.788   0.888   5.005
  474EMI    H0E 9006   4.659   0.807   0.100
  475EMI    C01 9007   2.471   4.654   4.409
  475EMI    C04 9008   2.347   4.534   4.542
  475EMI    C03 9009   2.421   4.616   4.617
  475EMI    H07 9010   2.518   4.692   4.321
  475EMI    H09 9011   2.275   4.460   4.570
  475EMI    H08 9012   2.423   4.627   4.723
  475EMI    C05 9013   2.604   4.784   4.570
  475EMI    H0B 9014   2.636   4.838   4.482
  475EMI    H0C 9015   2.559   4.854   4.640
  475EMI    H0D 9016   2.686   4.730   4.614
  475EMI    N00 9017   2.500   4.689   4.532
  475EMI    C06 9018   2.339   4.478   4.295
  475EMI    H0F 9019   2.336   4.377   4.333
  475EMI    C0N 9020   2.209   4.519   4.231
  475EMI    H0O 9021   2.186   4.454   4.148
  475EMI    H0P 9022   2.130   4.515   4.304
  475EMI    H0Q 9023   2.216   4.621   4.194
  475EMI    N02 9024   2.380   4.559   4.411
  475EMI    H0E 9025   2.423   4.476   4.228
  476EMI    C01 9026   0.446   1.785   4.912
  476EMI    C04 9027   0.278   1.651   4.888
  476EMI    C03 9028   0.242   1.772   4.844
  476EMI    H07 9029   0.543   1.824   4.935
  476EMI    H09 9030   0.221   1.560   4.889
  476EMI    H08 9031   0.150   1.805   4.799
  476EMI    C05 9032   0.355   2.000   4.835
  476EMI    H0B 9033   0.372   2.019   4.730
  476EMI    H0C 9034   0.265   2.051   4.867
  476EMI    H0D 9035   0.439   2.039   4.890
  476EMI    N00 9036   0.349   1.856   4.861
  476EMI    C06 9037   0.494   1.555   4.986
  476EMI    H0F 9038   0.480   1.563   0.047
  476EMI    C0N 9039   0.465   1.415   4.937
  476EMI    H0O 9040   0.536   1.344   4.977
  476EMI    H0P 9041   0.366   1.384   4.967
  476EMI    H0Q 9042   0.473   1.404   4.830
  476EMI    N02 9043   0.408   1.662   4.931
  476EMI    H0E 9044   0.596   1.578   4.958
  477EMI    C01 9045   3.666   0.954   3.100
  477EMI    C04 9046   3.553   1.138   3.125
  477EMI    C03 9047   3.467   1.036   3.135
  477EMI    H07 9048   3.746   0.884   3.087
  477EMI    H09 9049   3.535   1.244   3.135
  477EMI    H08 9050   3.362   1.039   3.157
  477EMI    C05 9051   3.487   0.783   3.108
  477EMI    H0B 9052   3.556   0.717   3.161
  477EMI    H0C 9053   3.390   0.778   3.155
  477EMI    H0D 9054   3.483   0.749   3.006
  477EMI    N00 9055   3.540   0.920   3.116
  477EMI    C06 9056   3.802   1.161   3.081
  477EMI    H0F 9057   3.807   1.194   2.979
  477EMI    C0N 9058   3.824   1.270   3.181
  477EMI    H0O 9059   3.924   1.313   3.172
  477EMI    H0P 9060   3.752   1.350   3.169
  477EMI    H0Q 9061   3.817   1.229   3.280
  477EMI    N02 9062   3.677   1.085   3.100
  477EMI    H0E 9063   3.881   1.092   3.104
  478EMI    C01 9064   2.818   2.619   2.219
  478EMI    C04 9065   2.695   2.795   2.182
  478EMI    C03 9066   2.777   2.824   2.282
  478EMI    H07 9067   2.866   2.525   2.205
  478EMI    H09 9068   2.629   2.860   2.130
  478EMI    H08 9069   2.796   2.917   2.332
  478EMI    C05 9070   2.970   2.707   2.393
  478EMI    H0B 9071   3.026   2.619   2.367
  478EMI    H0C 9072   3.031   2.794   2.375
  478EMI    H0D 9073   2.937   2.707   2.496
  478EMI    N00 9074   2.856   2.713   2.303
  478EMI    C06 9075   2.652   2.588   2.040
  478EMI    H0F 9076   2.599   2.503   2.080
  478EMI    C0N 9077   2.552   2.676   1.971
  478EMI    H0O 9078   2.497   2.616   1.902
  478EMI    H0P 9079   2.482   2.721   2.039
  478EMI    H0Q 9080   2.603   2.756   1.919
  478EMI    N02 9081   2.718   2.663   2.147
  478EMI    H0E 9082   2.725   2.558   1.968
  479EMI    C01 9083   1.571   0.616   0.829
  479EMI    C04 9084   1.616   0.558   1.034
  479EMI    C03 9085   1.564   0.680   1.036
  479EMI    H07 9086   1.557   0.613   0.723
  479EMI    H09 9087   1.649   0.493   1.112
  479EMI    H08 9088   1.543   0.747   1.117
  479EMI    C05 9089   1.451   0.831   0.869
  479EMI    H0B 9090   1.345   0.813   0.879
  479EMI    H0C 9091   1.477   0.917   0.928
  479EMI    H0D 9092   1.470   0.855   0.766
  479EMI    N00 9093   1.530   0.713   0.907
  479EMI    C06 9094   1.634   0.376   0.864
  479EMI    H0F 9095   1.737   0.347   0.872
  479EMI    C0N 9096   1.547   0.289   0.953
  479EMI    H0O 9097   1.525   0.195   0.905
  479EMI    H0P 9098   1.596   0.266   1.047
  479EMI    H0Q 9099   1.453   0.337   0.975
  479EMI    N02 9100   1.617   0.516   0.903
  479EMI    H0E 9101   1.601   0.364   0.762
  480EMI    C01 9102   2.933   1.792   1.206
  480EMI    C04 9103   3.067   1.926   1.102
  480EMI    C03 9104   3.034   1.984   1.218
  480EMI    H07 9105   2.870   1.708   1.227
  480EMI    H09 9106   3.126   1.964   1.022
  480EMI    H08 9107   3.064   2.080   1.254
  480EMI    C05 9108   2.890   1.917   1.416
  480EMI    H0B 9109   2.923   1.839   1.483
  480EMI    H0C 9110   2.917   2.014   1.455
  480EMI    H0D 9111   2.783   1.914   1.408
  480EMI    N00 9112   2.950   1.896   1.284
  480EMI    C06 9113   2.998   1.718   0.977
  480EMI    H0F 9114   2.909   1.735   0.920
  480EMI    C0N 9115   3.121   1.730   0.894
  480EMI    H0O 9116   3.131   1.646   0.827
  480EMI    H0P 9117   3.114   1.819   0.832
  480EMI    H0Q 9118   3.208   1.735   0.957
  480EMI    N02 9119   2.998   1.808   1.093
  480EMI    H0E 9120   3.004   1.615   1.004
  481EMI    C01 9121   4.750   4.007   3.192
  481EMI    C04 9122   4.709   3.970   3.402
  481EMI    C03 9123   4.838   4.002   3.391
  481EMI    H07 9124   4.741   4.016   3.087
  481EMI    H09 9125   4.660   3.932   3.488
  481EMI    H08 9126   4.916   3.996   3.464
  481EMI    C05 9127   4.991   4.071   3.200
  481EMI    H0B 9128   4.983   4.170   3.156
  481EMI    H0C 9129   0.022   4.071   3.277
  481EMI    H0D 9130   5.023   4.000   3.124
  481EMI    N00 9131   4.863   4.028   3.258
  481EMI    C06 9132   4.509   3.954   3.243
  481EMI    H0F 9133   4.500   3.868   3.178
  481EMI    C0N 9134   4.417   3.933   3.363
  481EMI    H0O 9135   4.318   3.970   3.340
  481EMI    H0P 9136   4.408   3.828   3.386
  481EMI    H0Q 9137   4.451   3.984   3.452
  481EMI    N02 9138   4.652   3.977   3.276
  481EMI    H0E 9139   4.473   4.040   3.189
  482EMI    C01 9140   2.494   4.941   3.095
  482EMI    C04 9141   2.696   4.867   3.076
  482EMI    C03 9142   2.628   4.824   2.970
  482EMI    H07 9143   2.407   4.991   3.134
  482EMI    H09 9144   2.798   4.852   3.102
  482EMI    H08 9145   2.662   4.766   2.887
  482EMI    C05 9146   2.396   4.857   2.881
  482EMI    H0B 9147   2.304   4.904   2.913
  482EMI    H0C 9148   2.429   4.898   2.787
  482EMI    H0D 9149   2.377   4.752   2.866
  482EMI    N00 9150   2.501   4.874   2.982
  482EMI    C06 9151   2.646   4.999   3.286
  482EMI    H0F 9152   2.627   4.928   3.365
  482EMI    C0N 9153   2.791   5.045   3.289
  482EMI    H0O 9154   2.819   0.031   3.389
  482EMI    H0P 9155   2.864   4.972   3.258
  482EMI    H0Q 9156   2.807   0.083   3.225
  482EMI    N02 9157   2.609   4.935   3.158
  482EMI    H0E 9158   2.584   0.042   3.300
  483EMI    C01 9159   4.528   1.082   3.267
  483EMI    C04 9160   4.367   0.938   3.281
  483EMI    C03 9161   4.315   1.054   3.239
  483EMI    H07 9162   4.623   1.131   3.278
  483EMI    H09 9163   4.318   0.848   3.310
  483EMI    H08 9164   4.212   1.080   3.227
  483EMI    C05 9165   4.402   1.289   3.208
  483EMI    H0B 9166   4.497   1.334   3.181
  483EMI    H0C 9167   4.326   1.310   3.134
  483EMI    H0D 9168   4.370   1.334   3.301
  483EMI    N00 9169   4.418   1.145   3.232
  483EMI    C06 9170   4.593   0.853   3.349
  483EMI    H0F 9171   4.588   0.852   3.457
  483EMI    C0N 9172   4.561   0.716   3.289
  483EMI    H0O 9173   4.638   0.644   3.316
  483EMI    H0P 9174   4.467   0.677   3.327
  483EMI    H0Q 9175   4.556   0.720   3.181
  483EMI    N02 9176   4.501   0.958   3.301
  483EMI    H0E 9177   4.693   0.880   3.318
  484EMI    C01 9178   3.329   4.762   2.074
  484EMI    C04 9179   3.356   4.690   1.871
  484EMI    C03 9180   3.456   4.774   1.898
  484EMI    H07 9181   3.287   4.783   2.171
  484EMI    H09 9182   3.333   4.639   1.779
  484EMI    H08 9183   3.537   4.811   1.837
  484EMI    C05 9184   3.511   4.922   2.096
  484EMI    H0B 9185   3.520   4.893   2.199
  484EMI    H0C 9186   3.611   4.932   2.054
  484EMI    H0D 9187   3.459   5.015   2.090
  484EMI    N00 9188   3.437   4.819   2.027
  484EMI    C06 9189   3.157   4.603   2.004
  484EMI    H0F 9190   3.074   4.656   1.963
  484EMI    C0N 9191   3.173   4.464   1.948
  484EMI    H0O 9192   3.086   4.403   1.967
  484EMI    H0P 9193   3.183   4.470   1.840
  484EMI    H0Q 9194   3.260   4.416   1.989
  484EMI    N02 9195   3.276   4.685   1.983
  484EMI    H0E 9196   3.141   4.599   2.110
  485EMI    C01 9197   2.017   2.868   4.381
  485EMI    C04 9198   2.203   2.835   4.275
  485EMI    C03 9199   2.105   2.786   4.199
  485EMI    H07 9200   1.944   2.903   4.450
  485EMI    H09 9201   2.308   2.844   4.255
  485EMI    H08 9202   2.106   2.746   4.100
  485EMI    C05 9203   1.853   2.777   4.214
  485EMI    H0B 9204   1.776   2.820   4.275
  485EMI    H0C 9205   1.844   2.819   4.115
  485EMI    H0D 9206   1.839   2.671   4.207
  485EMI    N00 9207   1.987   2.809   4.267
  485EMI    C06 9208   2.226   2.937   4.506
  485EMI    H0F 9209   2.274   2.859   4.564
  485EMI    C0N 9210   2.340   3.024   4.462
  485EMI    H0O 9211   2.384   3.077   4.545
  485EMI    H0P 9212   2.418   2.964   4.417
  485EMI    H0Q 9213   2.306   3.095   4.389
  485EMI    N02 9214   2.148   2.879   4.393
  485EMI    H0E 9215   2.159   2.996   4.566
  486EMI    C01 9216   2.496   0.707   2.641
  486EMI    C04 9217   2.596   0.900   2.638
  486EMI    C03 9218   2.683   0.810   2.684
  486EMI    H07 9219   2.421   0.632   2.627
  486EMI    H09 9220   2.607   1.004   2.616
  486EMI    H08 9221   2.786   0.823   2.709
  486EMI    C05 9222   2.663   0.572   2.765
  486EMI    H0B 9223   2.590   0.494   2.754
  486EMI    H0C 9224   2.756   0.541   2.721
  486EMI    H0D 9225   2.678   0.593   2.869
  486EMI    N00 9226   2.615   0.691   2.695
  486EMI    C06 9227   2.352   0.901   2.578
  486EMI    H0F 9228   2.329   0.959   2.664
  486EMI    C0N 9229   2.353   0.989   2.456
  486EMI    H0O 9230   2.265   1.052   2.456
  486EMI    H0P 9231   2.439   1.055   2.452
  486EMI    H0Q 9232   2.351   0.930   2.366
  486EMI    N02 9233   2.478   0.835   2.614
  486EMI    H0E 9234   2.277   0.825   2.564
  487EMI    C01 9235   1.333   0.845   2.082
  487EMI    C04 9236   1.350   0.916   2.287
  487EMI    C03 9237   1.419   0.998   2.208
  487EMI    H07 9238   1.302   0.791   1.995
  487EMI    H09 9239   1.332   0.925   2.392
  487EMI    H08 9240   1.471   1.087   2.229
  487EMI    C05 9241   1.443   1.033   1.962
  487EMI    H0B 9242   1.429   0.973   1.875
  487EMI    H0C 9243   1.381   1.120   1.955
  487EMI    H0D 9244   1.546   1.065   1.970
  487EMI    N00 9245   1.403   0.956   2.079
  487EMI    C06 9246   1.221   0.700   2.251
  487EMI    H0F 9247   1.279   0.611   2.234
  487EMI    C0N 9248   1.196   0.708   2.399
  487EMI    H0O 9249   1.147   0.620   2.436
  487EMI    H0P 9250   1.289   0.714   2.453
  487EMI    H0Q 9251   1.134   0.793   2.425
  487EMI    N02 9252   1.301   0.816   2.206
  487EMI    H0E 9253   1.126   0.702   2.201
  488EMI    C01 9254   3.873   3.579   3.088
  488EMI    C04 9255   3.725   3.625   3.240
  488EMI    C03 9256   3.663   3.620   3.122
  488EMI    H07 9257   3.966   3.565   3.039
  488EMI    H09 9258   3.687   3.650   3.336
  488EMI    H08 9259   3.562   3.640   3.096
  488EMI    C05 9260   3.732   3.549   2.887
  488EMI    H0B 9261   3.755   3.445   2.869
  488EMI    H0C 9262   3.631   3.568   2.857
  488EMI    H0D 9263   3.800   3.608   2.828
  488EMI    N00 9264   3.756   3.581   3.028
  488EMI    C06 9265   3.950   3.535   3.320
  488EMI    H0F 9266   4.035   3.601   3.329
  488EMI    C0N 9267   3.881   3.515   3.454
  488EMI    H0O 9268   3.949   3.473   3.526
  488EMI    H0P 9269   3.848   3.609   3.494
  488EMI    H0Q 9270   3.797   3.448   3.445
  488EMI    N02 9271   3.856   3.585   3.218
  488EMI    H0E 9272   3.985   3.438   3.286
  489EMI    C01 9273   1.891   1.041   4.263
  489EMI    C04 9274   1.991   0.849   4.265
  489EMI    C03 9275   1.861   0.825   4.254
  489EMI    H07 9276   1.871   1.146   4.265
  489EMI    H09 9277   2.070   0.779   4.269
  489EMI    H08 9278   1.810   0.731   4.247
  489EMI    C05 9279   1.659   0.969   4.229
  489EMI    H0B 9280   1.642   1.018   4.134
  489EMI    H0C 9281   1.613   0.873   4.228
  489EMI    H0D 9282   1.617   1.029   4.308
  489EMI    N00 9283   1.800   0.948   4.248
  489EMI    C06 9284   2.135   1.050   4.309
  489EMI    H0F 9285   2.152   1.053   4.415
  489EMI    C0N 9286   2.252   0.981   4.244
  489EMI    H0O 9287   2.341   1.016   4.294
  489EMI    H0P 9288   2.254   0.874   4.256
  489EMI    H0Q 9289   2.257   1.005   4.140
  489EMI    N02 9290   2.008   0.984   4.283
  489EMI    H0E 9291   2.129   1.151   4.270
  490EMI    C01 9292   1.411   4.332   3.783
  490EMI    C04 9293   1.353   4.497   3.912
  490EMI    C03 9294   1.470   4.451   3.955
  490EMI    H07 9295   1.412   4.261   3.702
  490EMI    H09 9296   1.295   4.579   3.949
  490EMI    H08 9297   1.534   4.490   4.030
  490EMI    C05 9298   1.604   4.242   3.909
  490EMI    H0B 9299   1.593   4.162   3.837
  490EMI    H0C 9300   1.700   4.291   3.901
  490EMI    H0D 9301   1.590   4.198   4.007
  490EMI    N00 9302   1.498   4.338   3.882
  490EMI    C06 9303   1.206   4.449   3.711
  490EMI    H0F 9304   1.124   4.383   3.735
  490EMI    C0N 9305   1.164   4.593   3.715
  490EMI    H0O 9306   1.078   4.608   3.650
  490EMI    H0P 9307   1.133   4.620   3.815
  490EMI    H0Q 9308   1.244   4.659   3.684
  490EMI    N02 9309   1.317   4.421   3.803
  490EMI    H0E 9310   1.242   4.432   3.611
  491EMI    C01 9311   0.924   1.024   1.609
  491EMI    C04 9312   0.867   0.824   1.669
  491EMI    C03 9313   0.908   0.817   1.542
  491EMI    H07 9314   0.939   1.130   1.610
  491EMI    H09 9315   0.830   0.747   1.732
  491EMI    H08 9316   0.912   0.733   1.476
  491EMI    C05 9317   0.996   0.986   1.377
  491EMI    H0B 9318   1.100   1.014   1.383
  491EMI    H0C 9319   0.986   0.904   1.309
  491EMI    H0D 9320   0.939   1.071   1.345
  491EMI    N00 9321   0.945   0.945   1.507
  491EMI    C06 9322   0.857   1.005   1.847
  491EMI    H0F 9323   0.756   1.040   1.858
  491EMI    C0N 9324   0.884   0.897   1.949
  491EMI    H0O 9325   0.873   0.938   2.048
  491EMI    H0P 9326   0.809   0.821   1.942
  491EMI    H0Q 9327   0.984   0.855   1.939
  491EMI    N02 9328   0.878   0.955   1.710
  491EMI    H0E 9329   0.926   1.086   1.868
  492EMI    C01 9330   1.827   0.456   3.927
  492EMI    C04 9331   1.824   0.566   3.739
  492EMI    C03 9332   1.842   0.437   3.711
  492EMI    H07 9333   1.822   0.435   4.032
  492EMI    H09 9334   1.816   0.648   3.672
  492EMI    H08 9335   1.852   0.388   3.616
  492EMI    C05 9336   1.868   0.226   3.843
  492EMI    H0B 9337   1.833   0.195   3.940
  492EMI    H0C 9338   1.810   0.179   3.765
  492EMI    H0D 9339   1.972   0.204   3.828
  492EMI    N00 9340   1.846   0.370   3.830
  492EMI    C06 9341   1.809   0.702   3.954
  492EMI    H0F 9342   1.900   0.714   4.010
  492EMI    C0N 9343   1.790   0.825   3.867
  492EMI    H0O 9344   1.789   0.915   3.926
  492EMI    H0P 9345   1.865   0.835   3.790
  492EMI    H0Q 9346   1.694   0.819   3.818
  492EMI    N02 9347   1.819   0.577   3.877
  492EMI    H0E 9348   1.724   0.692   4.020
  493EMI    C01 9349   0.527   1.613   1.808
  493EMI    C04 9350   0.569   1.401   1.792
  493EMI    C03 9351   0.684   1.465   1.779
  493EMI    H07 9352   0.476   1.705   1.833
  493EMI    H09 9353   0.552   1.295   1.795
  493EMI    H08 9354   0.779   1.421   1.770
  493EMI    C05 9355   0.757   1.708   1.796
  493EMI    H0B 9356   0.707   1.799   1.822
  493EMI    H0C 9357   0.828   1.686   1.875
  493EMI    H0D 9358   0.809   1.719   1.702
  493EMI    N00 9359   0.657   1.600   1.790
  493EMI    C06 9360   0.332   1.460   1.841
  493EMI    H0F 9361   0.283   1.425   1.753
  493EMI    C0N 9362   0.325   1.361   1.956
  493EMI    H0O 9363   0.230   1.366   2.008
  493EMI    H0P 9364   0.339   1.260   1.920
  493EMI    H0Q 9365   0.401   1.381   2.029
  493EMI    N02 9366   0.471   1.494   1.808
  493EMI    H0E 9367   0.285   1.551   1.873
  494EMI    C01 9368   2.609   4.330   3.096
  494EMI    C04 9369   2.550   4.345   2.887
  494EMI    C03 9370   2.539   4.466   2.941
  494EMI    H07 9371   2.642   4.290   3.190
  494EMI    H09 9372   2.527   4.314   2.789
  494EMI    H08 9373   2.503   4.556   2.897
  494EMI    C05 9374   2.568   4.565   3.170
  494EMI    H0B 9375   2.666   4.607   3.186
  494EMI    H0C 9376   2.502   4.643   3.134
  494EMI    H0D 9377   2.527   4.529   3.263
  494EMI    N00 9378   2.573   4.456   3.074
  494EMI    C06 9379   2.633   4.119   2.964
  494EMI    H0F 9380   2.569   4.059   3.026
  494EMI    C0N 9381   2.617   4.077   2.819
  494EMI    H0O 9382   2.642   3.973   2.804
  494EMI    H0P 9383   2.516   4.090   2.783
  494EMI    H0Q 9384   2.685   4.130   2.755
  494EMI    N02 9385   2.598   4.261   2.985
  494EMI    H0E 9386   2.737   4.106   2.992
  495EMI    C01 9387   1.432   3.763   3.648
  495EMI    C04 9388   1.272   3.898   3.592
  495EMI    C03 9389   1.300   3.824   3.486
  495EMI    H07 9390   1.505   3.708   3.704
  495EMI    H09 9391   1.196   3.973   3.602
  495EMI    H08 9392   1.253   3.825   3.389
  495EMI    C05 9393   1.454   3.629   3.439
  495EMI    H0B 9394   1.477   3.542   3.501
  495EMI    H0C 9395   1.383   3.601   3.363
  495EMI    H0D 9396   1.544   3.662   3.391
  495EMI    N00 9397   1.400   3.737   3.523
  495EMI    C06 9398   1.355   3.917   3.831
  495EMI    H0F 9399   1.456   3.950   3.853
  495EMI    C0N 9400   1.259   4.035   3.842
  495EMI    H0O 9401   1.269   4.086   3.937
  495EMI    H0P 9402   1.273   4.107   3.764
  495EMI    H0Q 9403   1.157   4.000   3.834
  495EMI    N02 9404   1.356   3.860   3.694
  495EMI    H0E 9405   1.322   3.840   3.899
  496EMI    C01 9406   0.664   2.929   3.055
  496EMI    C04 9407   0.819   2.778   3.052
  496EMI    C03 9408   0.873   2.894   3.015
  496EMI    H07 9409   0.572   2.982   3.072
  496EMI    H09 9410   0.863   2.682   3.070
  496EMI    H08 9411   0.975   2.918   2.995
  496EMI    C05 9412   0.782   3.123   2.960
  496EMI    H0B 9413   0.725   3.186   3.027
  496EMI    H0C 9414   0.883   3.157   2.955
  496EMI    H0D 9415   0.733   3.130   2.864
  496EMI    N00 9416   0.772   2.986   3.008
  496EMI    C06 9417   0.588   2.697   3.113
  496EMI    H0F 9418   0.578   2.625   3.034
  496EMI    C0N 9419   0.627   2.634   3.246
  496EMI    H0O 9420   0.549   2.566   3.279
  496EMI    H0P 9421   0.720   2.581   3.241
  496EMI    H0Q 9422   0.637   2.711   3.322
  496EMI    N02 9423   0.685   2.800   3.072
  496EMI    H0E 9424   0.492   2.745   3.122
  497EMI    C01 9425   3.801   4.404   1.957
  497EMI    C04 9426   3.964   4.406   2.099
  497EMI    C03 9427   3.951   4.529   2.050
  497EMI    H07 9428   3.720   4.370   1.896
  497EMI    H09 9429   4.038   4.370   2.167
  497EMI    H08 9430   4.009   4.618   2.069
  497EMI    C05 9431   3.805   4.643   1.880
  497EMI    H0B 9432   3.705   4.632   1.844
  497EMI    H0C 9433   3.813   4.732   1.941
  497EMI    H0D 9434   3.873   4.657   1.796
  497EMI    N00 9435   3.849   4.527   1.959
  497EMI    C06 9436   3.838   4.186   2.079
  497EMI    H0F 9437   3.873   4.120   2.002
  497EMI    C0N 9438   3.901   4.144   2.211
  497EMI    H0O 9439   3.866   4.046   2.239
  497EMI    H0P 9440   4.009   4.139   2.202
  497EMI    H0Q 9441   3.878   4.213   2.291
  497EMI    N02 9442   3.869   4.327   2.040
  497EMI    H0E 9443   3.731   4.175   2.089
  498EMI    C01 9444   2.529   1.918   3.401
  498EMI    C04 9445   2.629   2.092   3.317
  498EMI    C03 9446   2.722   2.002   3.346
  498EMI    H07 9447   2.453   1.851   3.439
  498EMI    H09 9448   2.638   2.191   3.278
  498EMI    H08 9449   2.828   2.007   3.338
  498EMI    C05 9450   2.721   1.768   3.438
  498EMI    H0B 9451   2.653   1.685   3.422
  498EMI    H0C 9452   2.814   1.757   3.386
  498EMI    H0D 9453   2.745   1.770   3.543
  498EMI    N00 9454   2.657   1.892   3.397
  498EMI    C06 9455   2.376   2.101   3.340
  498EMI    H0F 9456   2.346   2.149   3.431
  498EMI    C0N 9457   2.371   2.192   3.219
  498EMI    H0O 9458   2.268   2.205   3.190
  498EMI    H0P 9459   2.412   2.290   3.236
  498EMI    H0Q 9460   2.424   2.147   3.136
  498EMI    N02 9461   2.508   2.039   3.358
  498EMI    H0E 9462   2.311   2.018   3.319
  499EMI    C01 9463   1.194   2.239   4.980
  499EMI    C04 9464   1.273   2.065   0.038
  499EMI    C03 9465   1.153   2.091   0.089
  499EMI    H07 9466   1.184   2.321   4.914
  499EMI    H09 9467   1.339   1.986   0.064
  499EMI    H08 9468   1.099   2.039   0.165
  499EMI    C05 9469   0.969   2.257   0.038
  499EMI    H0B 9470   0.941   2.313   4.994
  499EMI    H0C 9471   0.897   2.178   0.053
  499EMI    H0D 9472   0.969   2.321   0.125
  499EMI    N00 9473   1.102   2.199   0.020
  499EMI    C06 9474   1.414   2.162   4.894
  499EMI    H0F 9475   1.484   2.238   4.925
  499EMI    C0N 9476   1.481   2.026   4.887
  499EMI    H0O 9477   1.564   2.025   4.819
  499EMI    H0P 9478   1.519   1.995   4.984
  499EMI    H0Q 9479   1.412   1.951   4.852
  499EMI    N02 9480   1.298   2.159   4.985
  499EMI    H0E 9481   1.375   2.185   4.795
  500EMI    C01 9482   3.828   4.632   2.680
  500EMI    C04 9483   3.845   4.487   2.519
  500EMI    C03 9484   3.940   4.579   2.502
  500EMI    H07 9485   3.798   4.681   2.771
  500EMI    H09 9486   3.824   4.401   2.461
  500EMI    H08 9487   4.014   4.591   2.425
  500EMI    C05 9488   4.013   4.788   2.625
  500EMI    H0B 9489   3.978   4.841   2.712
  500EMI    H0C 9490   4.115   4.755   2.644
  500EMI    H0D 9491   4.010   4.850   2.537
  500EMI    N00 9492   3.928   4.670   2.605
  500EMI    C06 9493   3.656   4.454   2.687
  500EMI    H0F 9494   3.569   4.511   2.661
  500EMI    C0N 9495   3.641   4.309   2.640
  500EMI    H0O 9496   3.551   4.266   2.681
  500EMI    H0P 9497   3.633   4.300   2.533
  500EMI    H0Q 9498   3.723   4.247   2.672
  500EMI    N02 9499   3.772   4.525   2.629
  500EMI    H0E 9500   3.674   4.453   2.793
  501BF       B 9501   0.886   3.226   3.629
  501BF       F 9502   0.986   3.144   3.579
  501BF       F 9503   0.859   3.331   3.543
  501BF       F 9504   0.770   3.154   3.648
  501BF       F 9505   0.929   3.280   3.749
  502BF       B 9506   4.672   0.894   0.404
  502BF       F 9507   4.717   1.025   0.383
  502BF       F 9508   4.646   0.872   0.538
  502BF       F 9509   4.557   0.872   0.329
  502BF       F 9510   4.773   0.807   0.361
  503BF       B 9511   0.254   2.223   0.758
  503BF       F 9512   0.375   2.180   0.706
  503BF       F 9513   0.208   2.126   0.848
  503BF       F 9514   0.272   2.344   0.823
  503BF       F 9515   0.164   2.243   0.655
  504BF       B 9516   1.172   1.891   4.711
  504BF       F 9517   1.139   1.884   4.845
  504BF       F 9518   1.060   1.865   4.633
  504BF       F 9519   1.223   2.016   4.683
  504BF       F 9520   1.266   1.793   4.682
  505BF       B 9521   1.413   3.021   3.472
  505BF       F 9522   1.275   3.016   3.455
  505BF       F 9523   1.470   2.972   3.355
  505BF       F 9524   1.452   3.154   3.489
  505BF       F 9525   1.450   2.944   3.581
  506BF       B 9526   3.035   2.893   2.060
  506BF       F 9527   3.034   2.755   2.064
  506BF       F 9528   3.137   2.937   1.977
  506BF       F 9529   2.911   2.936   2.011
  506BF       F 9530   3.057   2.937   2.189
  507BF       B 9531   3.790   1.423   3.510
  507BF       F 9532   3.701   1.392   3.408
  507BF       F 9533   3.781   1.558   3.538
  507BF       F 9534   3.752   1.353   3.622
  507BF       F 9535   3.918   1.387   3.470
  508BF       B 9536   2.719   3.416   4.934
  508BF       F 9537   2.814   3.417   4.834
  508BF       F 9538   2.642   3.532   4.928
  508BF       F 9539   2.636   3.306   4.923
  508BF       F 9540   2.784   3.410   0.011
  509BF       B 9541   0.891   1.739   2.257
  509BF       F 9542   1.001   1.823   2.268
  509BF       F 9543   0.773   1.810   2.277
  509BF       F 9544   0.889   1.685   2.129
  509BF       F 9545   0.901   1.637   2.350
  510BF       B 9546   2.729   2.458   3.141
  510BF       F 9547   2.670   2.584   3.148
  510BF       F 9548   2.841   2.468   3.059
  510BF       F 9549   2.767   2.419   3.268
  510BF       F 9550   2.640   2.366   3.088
  511BF       B 9551   1.755   2.338   4.329
  511BF       F 9552   1.680   2.406   4.422
  511BF       F 9553   1.862   2.276   4.395
  511BF       F 9554   1.679   2.240   4.266
  511BF       F 9555   1.804   2.430   4.240
  512BF       B 9556   1.128   0.399   4.618
  512BF       F 9557   0.997   0.359   4.639
  512BF       F 9558   1.174   0.352   4.496
  512BF       F 9559   1.134   0.538   4.619
  512BF       F 9560   1.213   0.353   4.718
  513BF       B 9561   2.967   2.150   4.590
  513BF       F 9562   2.833   2.185   4.573
  513BF       F 9563   2.988   2.021   4.542
  513BF       F 9564   3.046   2.241   4.519
  513BF       F 9565   2.999   2.155   4.725
  514BF       B 9566   2.831   4.473   3.784
  514BF       F 9567   2.743   4.579   3.799
  514BF       F 9568   2.756   4.357   3.771
  514BF       F 9569   2.903   4.483   3.667
  514BF       F 9570   2.916   4.462   3.893
  515BF       B 9571   0.981   2.174   0.811
  515BF       F 9572   0.868   2.222   0.876
  515BF       F 9573   0.991   2.037   0.826
  515BF       F 9574   0.977   2.210   0.678
  515BF       F 9575   1.086   2.236   0.875
  516BF       B 9576   2.443   0.618   5.017
  516BF       F 9577   2.386   0.492   5.033
  516BF       F 9578   2.459   0.641   4.881
  516BF       F 9579   2.357   0.711   0.027
  516BF       F 9580   2.564   0.621   0.042
  517BF       B 9581   3.380   1.182   1.675
  517BF       F 9582   3.294   1.279   1.724
  517BF       F 9583   3.338   1.135   1.552
  517BF       F 9584   3.504   1.244   1.665
  517BF       F 9585   3.390   1.074   1.761
  518BF       B 9586   1.992   1.089   3.565
  518BF       F 9587   2.100   1.003   3.584
  518BF       F 9588   2.033   1.198   3.490
  518BF       F 9589   1.894   1.017   3.498
  518BF       F 9590   1.949   1.133   3.689
  519BF       B 9591   0.535   1.876   3.771
  519BF       F 9592   0.490   1.789   3.871
  519BF       F 9593   0.551   1.808   3.651
  519BF       F 9594   0.441   1.975   3.750
  519BF       F 9595   0.656   1.932   3.811
  520BF       B 9596   0.453   2.639   2.025
  520BF       F 9597   0.439   2.755   1.952
  520BF       F 9598   0.583   2.594   2.005
  520BF       F 9599   0.436   2.664   2.160
  520BF       F 9600   0.368   2.540   1.976
  521BF       B 9601   3.170   3.399   0.884
  521BF       F 9602   3.207   3.503   0.968
  521BF       F 9603   3.082   3.314   0.950
  521BF       F 9604   3.107   3.457   0.775
  521BF       F 9605   3.282   3.328   0.842
  522BF       B 9606   0.433   4.145   0.812
  522BF       F 9607   0.342   4.247   0.833
  522BF       F 9608   0.559   4.179   0.858
  522BF       F 9609   0.390   4.032   0.881
  522BF       F 9610   0.439   4.113   0.677
  523BF       B 9611   3.315   0.995   4.512
  523BF       F 9612   3.300   0.857   4.508
  523BF       F 9613   3.275   1.047   4.391
  523BF       F 9614   3.243   1.051   4.616
  523BF       F 9615   3.450   1.019   4.534
  524BF       B 9616   0.308   3.886   2.954
  524BF       F 9617   0.407   3.828   2.875
  524BF       F 9618   0.240   3.791   3.027
  524BF       F 9619   0.367   3.980   3.038
  524BF       F 9620   0.217   3.953   2.872
  525BF       B 9621   2.211   3.036   1.858
  525BF       F 9622   2.309   3.134   1.852
  525BF       F 9623   2.258   2.938   1.943
  525BF       F 9624   2.093   3.086   1.908
  525BF       F 9625   2.191   2.983   1.731
  526BF       B 9626   2.194   4.540   2.921
  526BF       F 9627   2.161   4.652   2.847
  526BF       F 9628   2.082   4.481   2.977
  526BF       F 9629   2.255   4.447   2.836
  526BF       F 9630   2.284   4.572   3.022
  527BF       B 9631   3.653   3.575   3.727
  527BF       F 9632   3.562   3.618   3.823
  527BF       F 9633   3.782   3.606   3.771
  527BF       F 9634   3.642   3.437   3.710
  527BF       F 9635   3.629   3.640   3.607
  528BF       B 9636   2.715   3.902   3.698
  528BF       F 9637   2.648   4.004   3.629
  528BF       F 9638   2.799   3.835   3.609
  528BF       F 9639   2.791   3.958   3.799
  528BF       F 9640   2.616   3.817   3.746
  529BF       B 9641   0.297   2.365   3.917
  529BF       F 9642   0.313   2.452   3.810
  529BF       F 9643   0.411   2.372   3.996
  529BF       F 9644   0.185   2.399   3.992
  529BF       F 9645   0.283   2.235   3.869
  530BF       B 9646   4.150   1.414   5.040
  530BF       F 9647   4.074   1.298   5.034
  530BF       F 9648   4.285   1.381   5.045
  530BF       F 9649   4.125   1.493   4.929
  530BF       F 9650   4.113   1.484   0.111
  531BF       B 9651   1.243   2.014   2.147
  531BF       F 9652   1.351   2.083   2.093
  531BF       F 9653   1.284   1.924   2.242
  531BF       F 9654   1.153   2.101   2.205
  531BF       F 9655   1.182   1.951   2.039
  532BF       B 9656   1.783   3.814   3.586
  532BF       F 9657   1.921   3.815   3.609
  532BF       F 9658   1.755   3.913   3.494
  532BF       F 9659   1.746   3.691   3.536
  532BF       F 9660   1.716   3.842   3.705
  533BF       B 9661   2.512   4.013   0.207
  533BF       F 9662   2.477   3.906   0.288
  533BF       F 9663   2.594   3.972   0.103
  533BF       F 9664   2.395   4.069   0.158
  533BF       F 9665   2.576   4.106   0.287
  534BF       B 9666   4.743   2.982   3.857
  534BF       F 9667   4.675   2.903   3.765
  534BF       F 9668   4.650   3.052   3.934
  534BF       F 9669   4.818   2.899   3.940
  534BF       F 9670   4.821   3.073   3.789
  535BF       B 9671   2.559   1.294   3.266
  535BF       F 9672   2.676   1.322   3.200
  535BF       F 9673   2.501   1.411   3.312
  535BF       F 9674   2.470   1.229   3.182
  535BF       F 9675   2.590   1.206   3.370
  536BF       B 9676   2.363   3.640   4.200
  536BF       F 9677   2.425   3.571   4.302
  536BF       F 9678   2.364   3.569   4.081
  536BF       F 9679   2.231   3.668   4.238
  536BF       F 9680   2.428   3.761   4.182
  537BF       B 9681   1.482   3.070   1.698
  537BF       F 9682   1.368   2.993   1.700
  537BF       F 9683   1.592   2.990   1.671
  537BF       F 9684   1.473   3.162   1.596
  537BF       F 9685   1.496   3.135   1.820
  538BF       B 9686   3.242   0.244   4.565
  538BF       F 9687   3.126   0.311   4.536
  538BF       F 9688   3.217   0.106   4.564
  538BF       F 9689   3.343   0.275   4.475
  538BF       F 9690   3.284   0.281   4.692
  539BF       B 9691   1.146   2.425   4.653
  539BF       F 9692   1.215   2.488   4.756
  539BF       F 9693   1.033   2.499   4.620
  539BF       F 9694   1.230   2.414   4.544
  539BF       F 9695   1.109   2.297   4.692
  540BF       B 9696   1.779   4.630   3.852
  540BF       F 9697   1.643   4.658   3.847
  540BF       F 9698   1.809   4.517   3.776
  540BF       F 9699   1.850   4.739   3.802
  540BF       F 9700   1.816   4.602   3.983
  541BF       B 9701   1.579   2.566   5.023
  541BF       F 9702   1.616   2.559   0.112
  541BF       F 9703   1.626   2.687   4.975
  541BF       F 9704   1.639   2.460   4.957
  541BF       F 9705   1.441   2.557   5.018
  542BF       B 9706   4.918   0.154   2.916
  542BF       F 9707   4.870   0.138   2.785
  542BF       F 9708   5.028   0.074   2.940
  542BF       F 9709   4.951   0.287   2.936
  542BF       F 9710   4.816   0.123   3.005
  543BF       B 9711   0.928   0.699   3.140
  543BF       F 9712   1.042   0.628   3.103
  543BF       F 9713   0.816   0.615   3.138
  543BF       F 9714   0.941   0.745   3.270
  543BF       F 9715   0.906   0.808   3.057
  544BF       B 9716   3.106   2.134   3.272
  544BF       F 9717   3.074   2.202   3.155
  544BF       F 9718   3.059   2.004   3.261
  544BF       F 9719   3.244   2.134   3.288
  544BF       F 9720   3.047   2.199   3.380
  545BF       B 9721   1.404   3.760   2.544
  545BF       F 9722   1.514   3.730   2.462
  545BF       F 9723   1.440   3.741   2.675
  545BF       F 9724   1.372   3.894   2.531
  545BF       F 9725   1.297   3.682   2.506
  546BF       B 9726   3.672   0.568   2.064
  546BF       F 9727   3.576   0.559   1.965
  546BF       F 9728   3.778   0.643   2.016
  546BF       F 9729   3.622   0.633   2.177
  546BF       F 9730   3.711   0.441   2.102
  547BF       B 9731   3.119   4.038   1.126
  547BF       F 9732   3.204   3.968   1.041
  547BF       F 9733   3.191   4.123   1.208
  547BF       F 9734   3.027   4.110   1.050
  547BF       F 9735   3.052   3.947   1.205
  548BF       B 9736   4.228   2.830   5.000
  548BF       F 9737   4.094   2.857   5.028
  548BF       F 9738   4.243   2.808   4.864
  548BF       F 9739   4.306   2.938   5.042
  548BF       F 9740   4.266   2.717   0.027
  549BF       B 9741   2.425   3.961   2.351
  549BF       F 9742   2.397   4.089   2.304
  549BF       F 9743   2.486   3.965   2.475
  549BF       F 9744   2.304   3.897   2.366
  549BF       F 9745   2.504   3.895   2.257
  550BF       B 9746   3.284   2.128   2.696
  550BF       F 9747   3.392   2.183   2.763
  550BF       F 9748   3.272   2.189   2.571
  550BF       F 9749   3.305   1.993   2.675
  550BF       F 9750   3.165   2.151   2.765
  551BF       B 9751   3.098   2.367   0.268
  551BF       F 9752   3.087   2.229   0.280
  551BF       F 9753   3.232   2.404   0.266
  551BF       F 9754   3.029   2.410   0.155
  551BF       F 9755   3.039   2.429   0.379
  552BF       B 9756   0.292   1.751   2.075
  552BF       F 9757   0.210   1.819   2.163
  552BF       F 9758   0.291   1.617   2.111
  552BF       F 9759   0.244   1.760   1.944
  552BF       F 9760   0.422   1.800   2.075
  553BF       B 9761   2.187   0.100   3.472
  553BF       F 9762   2.315   0.044   3.469
  553BF       F 9763   2.177   0.189   3.578
  553BF       F 9764   2.166   0.167   3.352
  553BF       F 9765   2.091   5.045   3.489
  554BF       B 9766   4.078   0.511   1.518
  554BF       F 9767   4.072   0.380   1.472
  554BF       F 9768   3.968   0.539   1.597
  554BF       F 9769   4.190   0.528   1.598
  554BF       F 9770   4.084   0.599   1.410
  555BF       B 9771   1.113   2.682   2.893
  555BF       F 9772   1.235   2.643   2.841
  555BF       F 9773   1.030   2.572   2.905
  555BF       F 9774   1.133   2.738   3.018
  555BF       F 9775   1.057   2.776   2.807
  556BF       B 9776   3.078   3.213   3.669
  556BF       F 9777   2.966   3.295   3.667
  556BF       F 9778   3.163   3.247   3.564
  556BF       F 9779   3.145   3.231   3.789
  556BF       F 9780   3.042   3.080   3.655
  557BF       B 9781   1.368   3.466   0.739
  557BF       F 9782   1.432   3.565   0.812
  557BF       F 9783   1.299   3.383   0.825
  557BF       F 9784   1.283   3.530   0.651
  557BF       F 9785   1.459   3.389   0.667
  558BF       B 9786   3.389   3.950   3.629
  558BF       F 9787   3.490   3.955   3.724
  558BF       F 9788   3.387   4.072   3.563
  558BF       F 9789   3.416   3.851   3.537
  558BF       F 9790   3.264   3.927   3.686
  559BF       B 9791   4.659   4.328   3.101
  559BF       F 9792   4.563   4.228   3.089
  559BF       F 9793   4.746   4.294   3.204
  559BF       F 9794   4.726   4.339   2.981
  559BF       F 9795   4.593   4.444   3.135
  560BF       B 9796   4.878   3.846   3.796
  560BF       F 9797   4.937   3.722   3.794
  560BF       F 9798   4.975   3.941   3.824
  560BF       F 9799   4.817   3.874   3.675
  560BF       F 9800   4.775   3.853   3.892
  561BF       B 9801   1.802   4.626   2.705
  561BF       F 9802   1.908   4.715   2.710
  561BF       F 9803   1.847   4.496   2.730
  561BF       F 9804   1.703   4.660   2.796
  561BF       F 9805   1.747   4.629   2.578
  562BF       B 9806   3.844   0.499   2.890
  562BF       F 9807   3.899   0.394   2.959
  562BF       F 9808   3.941   0.578   2.830
  562BF       F 9809   3.755   0.447   2.795
  562BF       F 9810   3.768   0.577   2.978
  563BF       B 9811   2.884   3.311   2.905
  563BF       F 9812   3.000   3.346   2.972
  563BF       F 9813   2.818   3.430   2.874
  563BF       F 9814   2.912   3.238   2.790
  563BF       F 9815   2.803   3.232   2.984
  564BF       B 9816   2.410   0.050   4.599
  564BF       F 9817   2.431   5.035   4.475
  564BF       F 9818   2.529   0.048   4.670
  564BF       F 9819   2.369   0.182   4.584
  564BF       F 9820   2.318   5.023   4.673
  565BF       B 9821   2.194   0.594   4.398
  565BF       F 9822   2.239   0.482   4.465
  565BF       F 9823   2.166   0.565   4.265
  565BF       F 9824   2.081   0.644   4.460
  565BF       F 9825   2.292   0.692   4.401
  566BF       B 9826   2.060   1.593   1.538
  566BF       F 9827   2.145   1.485   1.516
  566BF       F 9828   1.934   1.561   1.492
  566BF       F 9829   2.056   1.619   1.673
  566BF       F 9830   2.108   1.706   1.474
  567BF       B 9831   3.957   1.216   4.157
  567BF       F 9832   3.868   1.116   4.121
  567BF       F 9833   4.086   1.175   4.125
  567BF       F 9834   3.924   1.333   4.091
  567BF       F 9835   3.945   1.233   4.293
  568BF       B 9836   1.907   2.571   3.563
  568BF       F 9837   1.946   2.670   3.652
  568BF       F 9838   1.902   2.622   3.434
  568BF       F 9839   2.000   2.468   3.560
  568BF       F 9840   1.782   2.521   3.595
  569BF       B 9841   0.681   2.736   3.731
  569BF       F 9842   0.545   2.740   3.757
  569BF       F 9843   0.729   2.863   3.703
  569BF       F 9844   0.747   2.688   3.845
  569BF       F 9845   0.706   2.654   3.622
  570BF       B 9846   3.749   4.770   2.284
  570BF       F 9847   3.692   4.724   2.402
  570BF       F 9848   3.881   4.732   2.273
  570BF       F 9849   3.677   4.711   2.180
  570BF       F 9850   3.738   4.908   2.282
  571BF       B 9851   4.137   3.578   1.136
  571BF       F 9852   4.159   3.445   1.164
  571BF       F 9853   4.205   3.653   1.229
  571BF       F 9854   4.181   3.601   1.006
  571BF       F 9855   4.000   3.605   1.143
  572BF       B 9856   2.383   1.583   0.375
  572BF       F 9857   2.306   1.530   0.479
  572BF       F 9858   2.510   1.612   0.421
  572BF       F 9859   2.385   1.488   0.274
  572BF       F 9860   2.326   1.701   0.330
  573BF       B 9861   0.073   2.271   2.216
  573BF       F 9862   5.046   2.244   2.101
  573BF       F 9863   0.177   2.180   2.224
  573BF       F 9864   0.124   2.399   2.209
  573BF       F 9865   5.033   2.253   2.324
  574BF       B 9866   1.852   3.050   5.006
  574BF       F 9867   1.898   3.166   4.946
  574BF       F 9868   1.719   3.035   4.973
  574BF       F 9869   1.920   2.937   4.962
  574BF       F 9870   1.863   3.063   0.099
  575BF       B 9871   0.525   4.639   2.484
  575BF       F 9872   0.515   4.614   2.619
  575BF       F 9873   0.401   4.631   2.422
  575BF       F 9874   0.578   4.766   2.465
  575BF       F 9875   0.612   4.546   2.428
  576BF       B 9876   4.693   3.655   3.232
  576BF       F 9877   4.669   3.718   3.110
  576BF       F 9878   4.583   3.678   3.315
  576BF       F 9879   4.707   3.518   3.216
  576BF       F 9880   4.805   3.710   3.290
  577BF       B 9881   0.280   2.613   1.091
  577BF       F 9882   0.288   2.481   1.132
  577BF       F 9883   0.390   2.637   1.009
  577BF       F 9884   0.163   2.636   1.022
  577BF       F 9885   0.288   2.690   1.206
  578BF       B 9886   0.189   1.278   4.790
  578BF       F 9887   0.093   1.215   4.714
  578BF       F 9888   0.136   1.318   4.913
  578BF       F 9889   0.293   1.189   4.818
  578BF       F 9890   0.240   1.388   4.722
  579BF       B 9891   1.606   1.900   3.254
  579BF       F 9892   1.579   1.764   3.269
  579BF       F 9893   1.623   1.958   3.378
  579BF       F 9894   1.719   1.916   3.176
  579BF       F 9895   1.497   1.959   3.190
  580BF       B 9896   0.762   1.304   4.169
  580BF       F 9897   0.626   1.281   4.170
  580BF       F 9898   0.827   1.196   4.111
  580BF       F 9899   0.788   1.416   4.093
  580BF       F 9900   0.809   1.325   4.298
  581BF       B 9901   4.851   0.399   4.944
  581BF       F 9902   4.739   0.479   4.962
  581BF       F 9903   4.951   0.444   5.031
  581BF       F 9904   4.822   0.266   4.972
  581BF       F 9905   4.897   0.413   4.813
  582BF       B 9906   2.026   2.071   2.073
  582BF       F 9907   1.924   2.159   2.108
  582BF       F 9908   1.975   1.954   2.021
  582BF       F 9909   2.103   2.133   1.976
  582BF       F 9910   2.104   2.042   2.183
  583BF       B 9911   4.862   2.158   3.673
  583BF       F 9912   4.743   2.151   3.602
  583BF       F 9913   4.943   2.257   3.619
  583BF       F 9914   4.833   2.182   3.807
  583BF       F 9915   4.926   2.035   3.661
  584BF       B 9916   3.988   4.302   2.786
  584BF       F 9917   4.021   4.434   2.764
  584BF       F 9918   4.095   4.244   2.851
  584BF       F 9919   3.871   4.294   2.862
  584BF       F 9920   3.970   4.240   2.662
  585BF       B 9921   4.094   0.694   3.588
  585BF       F 9922   4.132   0.572   3.639
  585BF       F 9923   4.184   0.730   3.487
  585BF       F 9924   3.965   0.690   3.538
  585BF       F 9925   4.096   0.792   3.687
  586BF       B 9926   0.634   3.599   4.900
  586BF       F 9927   0.761   3.651   4.926
  586BF       F 9928   0.645   3.504   4.799
  586BF       F 9929   0.584   3.540   5.015
  586BF       F 9930   0.552   3.703   4.857
  587BF       B 9931   4.630   3.886   4.564
  587BF       F 9932   4.650   3.938   4.691
  587BF       F 9933   4.544   3.776   4.572
  587BF       F 9934   4.568   3.981   4.482
  587BF       F 9935   4.750   3.850   4.506
  588BF       B 9936   2.340   1.859   3.066
  588BF       F 9937   2.352   1.810   3.194
  588BF       F 9938   2.462   1.913   3.024
  588BF       F 9939   2.306   1.754   2.983
  588BF       F 9940   2.242   1.957   3.057
  589BF       B 9941   1.855   3.991   0.980
  589BF       F 9942   1.723   3.978   1.016
  589BF       F 9943   1.869   3.998   0.843
  589BF       F 9944   1.909   4.106   1.037
  589BF       F 9945   1.921   3.879   1.029
  590BF       B 9946   3.993   4.662   3.019
  590BF       F 9947   4.053   4.676   3.144
  590BF       F 9948   3.888   4.753   3.006
  590BF       F 9949   4.084   4.683   2.916
  590BF       F 9950   3.940   4.533   3.014
  591BF       B 9951   4.511   4.988   3.852
  591BF       F 9952   4.405   5.007   3.942
  591BF       F 9953   4.528   4.850   3.834
  591BF       F 9954   4.475   5.040   3.728
  591BF       F 9955   4.628   0.003   3.895
  592BF       B 9956   3.929   3.957   2.850
  592BF       F 9957   3.916   3.820   2.870
  592BF       F 9958   4.064   3.985   2.829
  592BF       F 9959   3.855   3.992   2.738
  592BF       F 9960   3.879   4.024   2.962
  593BF       B 9961   4.188   3.061   4.392
  593BF       F 9962   4.202   2.937   4.452
  593BF       F 9963   4.054   3.084   4.358
  593BF       F 9964   4.227   3.162   4.480
  593BF       F 9965   4.264   3.070   4.276
  594BF       B 9966   2.821   3.723   4.041
  594BF       F 9967   2.952   3.771   4.039
  594BF       F 9968   2.814   3.622   4.134
  594BF       F 9969   2.737   3.829   4.074
  594BF       F 9970   2.789   3.673   3.915
  595BF       B 9971   2.561   3.184   4.255
  595BF       F 9972   2.430   3.220   4.232
  595BF       F 9973   2.578   3.047   4.249
  595BF       F 9974   2.640   3.242   4.157
  595BF       F 9975   2.602   3.226   4.381
  596BF       B 9976   1.105   1.278   0.808
  596BF       F 9977   1.058   1.148   0.830
  596BF       F 9978   1.011   1.365   0.865
  596BF       F 9979   1.227   1.295   0.871
  596BF       F 9980   1.118   1.302   0.673
  597BF       B 9981   0.496   3.808   2.024
  597BF       F 9982   0.392   3.901   2.035
  597BF       F 9983   0.618   3.866   2.053
  597BF       F 9984   0.473   3.707   2.115
  597BF       F 9985   0.500   3.759   1.893
  598BF       B 9986   2.357   1.316   4.262
  598BF       F 9987   2.396   1.225   4.165
  598BF       F 9988   2.345   1.252   4.385
  598BF       F 9989   2.455   1.413   4.270
  598BF       F 9990   2.236   1.372   4.226
  599BF       B 9991   0.467   4.862   1.309
  599BF       F 9992   0.448   4.729   1.347
  599BF       F 9993   0.365   4.941   1.360
  599BF       F 9994   0.589   4.907   1.359
  599BF       F 9995   0.466   4.874   1.171
  600BF       B 9996   0.674   4.056   2.494
  600BF       F 9997   0.753   4.034   2.606
  600BF       F 9998   0.584   3.952   2.481
  600BF       F 9999   0.603   4.174   2.508
  600BF       F10000   0.752   4.065   2.380
  601BF       B10001   1.706   0.041   0.611
  601BF       F10002   1.669   0.131   0.513
  601BF       F10003   1.672   0.097   0.733
  601BF       F10004   1.638   4.968   0.594
  601BF       F10005   1.843   0.017   0.605
  602BF       B10006   3.607   3.151   2.699
  602BF       F10007   3.483   3.110   2.652
  602BF       F10008   3.590   3.260   2.784
  602BF       F10009   3.667   3.044   2.763
  602BF       F10010   3.684   3.189   2.592
  603BF       B10011   0.284   1.616   2.797
  603BF       F10012   0.413   1.669   2.805
  603BF       F10013   0.279   1.509   2.710
  603BF       F10014   0.246   1.572   2.924
  603BF       F10015   0.196   1.707   2.743
  604BF       B10016   4.502   0.256   3.245
  604BF       F10017   4.614   0.294   3.319
  604BF       F10018   4.418   0.367   3.240
  604BF       F10019   4.540   0.225   3.115
  604BF       F10020   4.440   0.147   3.305
  605BF       B10021   3.981   4.416   0.252
  605BF       F10022   3.912   4.323   0.174
  605BF       F10023   4.080   4.475   0.174
  605BF       F10024   3.890   4.512   0.296
  605BF       F10025   4.036   4.349   0.360
  606BF       B10026   4.119   3.387   2.939
  606BF       F10027   4.098   3.373   3.077
  606BF       F10028   3.996   3.389   2.877
  606BF       F10029   4.177   3.508   2.908
  606BF       F10030   4.197   3.283   2.892
  607BF       B10031   0.244   4.966   1.694
  607BF       F10032   0.235   4.832   1.732
  607BF       F10033   0.369   4.992   1.640
  607BF       F10034   0.148   4.999   1.601
  607BF       F10035   0.233   5.046   1.807
  608BF       B10036   4.155   0.290   4.972
  608BF       F10037   4.237   0.256   0.034
  608BF       F10038   4.021   0.265   5.005
  608BF       F10039   4.166   0.426   4.944
  608BF       F10040   4.188   0.215   4.860
  609BF       B10041   3.325   3.981   0.421
  609BF       F10042   3.426   4.011   0.512
  609BF       F10043   3.310   4.083   0.330
  609BF       F10044   3.357   3.864   0.353
  609BF       F10045   3.205   3.964   0.489
  610BF       B10046   2.220   3.103   4.955
  610BF       F10047   2.330   3.018   4.962
  610BF       F10048   2.260   3.234   4.935
  610BF       F10049   2.140   3.062   4.849
  610BF       F10050   2.150   3.101   0.030
  611BF       B10051   1.062   4.984   4.773
  611BF       F10052   1.146   4.932   4.871
  611BF       F10053   0.969   0.026   4.827
  611BF       F10054   1.139   0.006   4.678
  611BF       F10055   0.998   4.877   4.712
  612BF       B10056   0.877   0.949   0.527
  612BF       F10057   0.897   0.855   0.427
  612BF       F10058   0.740   0.972   0.540
  612BF       F10059   0.927   0.904   0.648
  612BF       F10060   0.938   1.068   0.489
  613BF       B10061   0.412   2.652   4.793
  613BF       F10062   0.484   2.579   4.887
  613BF       F10063   0.487   2.659   4.676
  613BF       F10064   0.290   2.589   4.771
  613BF       F10065   0.391   2.778   4.848
  614BF       B10066   1.100   2.426   2.270
  614BF       F10067   1.062   2.342   2.169
  614BF       F10068   0.989   2.455   2.346
  614BF       F10069   1.198   2.364   2.345
  614BF       F10070   1.152   2.545   2.217
  615BF       B10071   0.689   2.818   0.783
  615BF       F10072   0.666   2.954   0.778
  615BF       F10073   0.731   2.778   0.657
  615BF       F10074   0.790   2.788   0.876
  615BF       F10075   0.575   2.749   0.820
  616BF       B10076   3.920   0.894   2.659
  616BF       F10077   3.878   1.026   2.666
  616BF       F10078   3.854   0.828   2.760
  616BF       F10079   3.888   0.840   2.534
  616BF       F10080   4.055   0.886   2.686
  617BF       B10081   4.263   2.663   1.485
  617BF       F10082   4.220   2.738   1.377
  617BF       F10083   4.390   2.613   1.463
  617BF       F10084   4.261   2.735   1.603
  617BF       F10085   4.174   2.557   1.503
  618BF       B10086   4.743   3.311   4.468
  618BF       F10087   4.638   3.219   4.450
  618BF       F10088   4.852   3.246   4.524
  618BF       F10089   4.776   3.366   4.345
  618BF       F10090   4.698   3.412   4.553
  619BF       B10091   0.255   2.109   1.848
  619BF       F10092   0.264   2.062   1.977
  619BF       F10093   0.251   1.999   1.764
  619BF       F10094   0.138   2.181   1.829
  619BF       F10095   0.366   2.186   1.815
  620BF       B10096   1.456   3.794   2.054
  620BF       F10097   1.593   3.819   2.047
  620BF       F10098   1.435   3.672   2.116
  620BF       F10099   1.394   3.893   2.128
  620BF       F10100   1.408   3.790   1.924
  621BF       B10101   1.891   1.127   3.149
  621BF       F10102   1.851   0.994   3.152
  621BF       F10103   1.844   1.190   3.262
  621BF       F10104   2.030   1.135   3.146
  621BF       F10105   1.836   1.190   3.037
  622BF       B10106   4.754   2.642   3.035
  622BF       F10107   4.624   2.645   2.982
  622BF       F10108   4.772   2.751   3.120
  622BF       F10109   4.773   2.523   3.104
  622BF       F10110   4.848   2.649   2.933
  623BF       B10111   4.988   4.199   2.623
  623BF       F10112   0.046   4.290   2.602
  623BF       F10113   4.968   4.127   2.505
  623BF       F10114   5.020   4.113   2.727
  623BF       F10115   4.871   4.267   2.652
  624BF       B10116   3.692   4.796   1.284
  624BF       F10117   3.600   4.891   1.241
  624BF       F10118   3.641   4.668   1.261
  624BF       F10119   3.813   4.809   1.216
  624BF       F10120   3.713   4.812   1.420
  625BF       B10121   3.904   1.818   3.870
  625BF       F10122   3.871   1.947   3.833
  625BF       F10123   4.042   1.801   3.866
  625BF       F10124   3.862   1.792   4.000
  625BF       F10125   3.842   1.730   3.782
  626BF       B10126   1.068   3.178   0.156
  626BF       F10127   1.090   3.233   0.030
  626BF       F10128   1.001   3.057   0.143
  626BF       F10129   1.193   3.158   0.216
  626BF       F10130   0.997   3.266   0.235
  627BF       B10131   4.614   2.611   3.440
  627BF       F10132   4.515   2.571   3.350
  627BF       F10133   4.736   2.554   3.406
  627BF       F10134   4.623   2.751   3.441
  627BF       F10135   4.576   2.567   3.566
  628BF       B10136   2.300   4.311   1.625
  628BF       F10137   2.166   4.327   1.659
  628BF       F10138   2.321   4.177   1.598
  628BF       F10139   2.330   4.386   1.512
  628BF       F10140   2.378   4.357   1.729
  629BF       B10141   1.860   1.441   4.337
  629BF       F10142   1.774   1.409   4.233
  629BF       F10143   1.972   1.359   4.330
  629BF       F10144   1.897   1.574   4.324
  629BF       F10145   1.798   1.418   4.459
  630BF       B10146   0.302   1.185   2.733
  630BF       F10147   0.310   1.069   2.805
  630BF       F10148   0.264   1.279   2.827
  630BF       F10149   0.425   1.216   2.677
  630BF       F10150   0.203   1.172   2.634
  631BF       B10151   4.567   1.897   4.443
  631BF       F10152   4.593   1.883   4.307
  631BF       F10153   4.446   1.836   4.471
  631BF       F10154   4.667   1.835   4.516
  631BF       F10155   4.558   2.031   4.479
  632BF       B10156   0.792   1.885   4.995
  632BF       F10157   0.771   1.747   4.999
  632BF       F10158   0.786   1.927   4.863
  632BF       F10159   0.689   1.945   0.023
  632BF       F10160   0.914   1.915   0.007
  633BF       B10161   4.243   3.424   3.545
  633BF       F10162   4.357   3.358   3.586
  633BF       F10163   4.156   3.435   3.653
  633BF       F10164   4.272   3.552   3.501
  633BF       F10165   4.180   3.357   3.441
  634BF       B10166   1.958   1.489   0.732
  634BF       F10167   2.093   1.456   0.725
  634BF       F10168   1.947   1.626   0.747
  634BF       F10169   1.895   1.444   0.615
  634BF       F10170   1.901   1.428   0.842
  635BF       B10171   4.793   3.585   0.673
  635BF       F10172   4.685   3.643   0.738
  635BF       F10173   4.752   3.536   0.548
  635BF       F10174   4.896   3.675   0.657
  635BF       F10175   4.839   3.479   0.750
  636BF       B10176   0.061   4.329   1.193
  636BF       F10177   0.149   4.292   1.295
  636BF       F10178   0.047   4.223   1.103
  636BF       F10179   4.982   4.357   1.249
  636BF       F10180   0.108   4.441   1.127
  637BF       B10181   0.002   3.251   2.893
  637BF       F10182   0.064   3.127   2.881
  637BF       F10183   0.094   3.354   2.883
  637BF       F10184   4.955   3.264   2.789
  637BF       F10185   4.979   3.258   3.014
  638BF       B10186   2.049   3.084   2.778
  638BF       F10187   2.102   2.968   2.830
  638BF       F10188   1.913   3.070   2.762
  638BF       F10189   2.074   3.197   2.855
  638BF       F10190   2.103   3.102   2.651
  639BF       B10191   4.017   1.863   0.005
  639BF       F10192   3.892   1.819   0.047
  639BF       F10193   4.026   2.002   0.004
  639BF       F10194   4.117   1.812   0.087
  639BF       F10195   4.039   1.818   4.920
  640BF       B10196   2.691   2.237   4.128
  640BF       F10197   2.766   2.138   4.068
  640BF       F10198   2.675   2.214   4.264
  640BF       F10199   2.754   2.359   4.109
  640BF       F10200   2.565   2.240   4.069
  641BF       B10201   2.838   2.487   1.621
  641BF       F10202   2.906   2.367   1.603
  641BF       F10203   2.796   2.496   1.753
  641BF       F10204   2.921   2.594   1.590
  641BF       F10205   2.728   2.497   1.538
  642BF       B10206   1.359   2.914   4.803
  642BF       F10207   1.494   2.944   4.822
  642BF       F10208   1.331   2.792   4.861
  642BF       F10209   1.285   3.016   4.863
  642BF       F10210   1.330   2.905   4.668
  643BF       B10211   1.492   4.272   0.288
  643BF       F10212   1.474   4.404   0.248
  643BF       F10213   1.602   4.258   0.371
  643BF       F10214   1.379   4.224   0.352
  643BF       F10215   1.513   4.196   0.175
  644BF       B10216   4.682   3.861   1.626
  644BF       F10217   4.659   3.870   1.764
  644BF       F10218   4.566   3.821   1.563
  644BF       F10219   4.720   3.988   1.581
  644BF       F10220   4.786   3.772   1.601
  645BF       B10221   1.396   0.373   2.487
  645BF       F10222   1.270   0.402   2.434
  645BF       F10223   1.392   0.254   2.559
  645BF       F10224   1.486   0.360   2.382
  645BF       F10225   1.441   0.477   2.567
  646BF       B10226   1.255   1.621   1.585
  646BF       F10227   1.142   1.699   1.610
  646BF       F10228   1.283   1.541   1.695
  646BF       F10229   1.227   1.542   1.473
  646BF       F10230   1.365   1.700   1.561
  647BF       B10231   4.130   2.774   3.344
  647BF       F10232   4.117   2.883   3.261
  647BF       F10233   4.261   2.762   3.382
  647BF       F10234   4.052   2.797   3.458
  647BF       F10235   4.085   2.659   3.280
  648BF       B10236   3.910   0.010   0.561
  648BF       F10237   3.812   0.110   0.573
  648BF       F10238   3.884   4.982   0.445
  648BF       F10239   4.036   0.069   0.554
  648BF       F10240   3.901   4.972   0.671
  649BF       B10241   1.631   3.664   3.086
  649BF       F10242   1.521   3.581   3.098
  649BF       F10243   1.653   3.704   2.954
  649BF       F10244   1.614   3.779   3.162
  649BF       F10245   1.745   3.596   3.129
  650BF       B10246   4.426   4.522   1.212
  650BF       F10247   4.341   4.628   1.243
  650BF       F10248   4.464   4.531   1.078
  650BF       F10249   4.539   4.526   1.291
  650BF       F10250   4.359   4.402   1.231
  651BF       B10251   4.081   2.297   3.952
  651BF       F10252   4.217   2.310   3.927
  651BF       F10253   4.036   2.168   3.927
  651BF       F10254   4.059   2.322   4.086
  651BF       F10255   4.007   2.387   3.876
  652BF       B10256   5.028   2.348   1.288
  652BF       F10257   0.078   2.261   1.237
  652BF       F10258   4.910   2.340   1.216
  652BF       F10259   5.004   2.309   1.420
  652BF       F10260   0.032   2.476   1.285
  653BF       B10261   1.538   0.272   3.466
  653BF       F10262   1.499   0.400   3.499
  653BF       F10263   1.582   0.270   3.334
  653BF       F10264   1.640   0.232   3.552
  653BF       F10265   1.430   0.184   3.478
  654BF       B10266   0.248   4.814   2.765
  654BF       F10267   0.383   4.804   2.801
  654BF       F10268   0.225   4.730   2.657
  654BF       F10269   0.170   4.772   2.872
  654BF       F10270   0.217   4.944   2.727
  655BF       B10271   2.058   4.907   3.117
  655BF       F10272   2.176   4.970   3.154
  655BF       F10273   2.044   4.917   2.979
  655BF       F10274   2.065   4.774   3.157
  655BF       F10275   1.949   4.966   3.179
  656BF       B10276   3.591   1.304   1.115
  656BF       F10277   3.502   1.200   1.102
  656BF       F10278   3.597   1.377   0.997
  656BF       F10279   3.550   1.387   1.219
  656BF       F10280   3.717   1.255   1.146
  657BF       B10281   1.663   0.810   1.786
  657BF       F10282   1.754   0.706   1.795
  657BF       F10283   1.651   0.844   1.653
  657BF       F10284   1.541   0.764   1.837
  657BF       F10285   1.713   0.916   1.859
  658BF       B10286   4.389   3.134   2.669
  658BF       F10287   4.450   3.070   2.562
  658BF       F10288   4.481   3.159   2.771
  658BF       F10289   4.332   3.254   2.625
  658BF       F10290   4.289   3.051   2.717
  659BF       B10291   5.017   4.324   2.073
  659BF       F10292   0.070   4.226   2.058
  659BF       F10293   0.027   4.439   2.129
  659BF       F10294   4.963   4.355   1.949
  659BF       F10295   4.916   4.276   2.155
  660BF       B10296   1.754   1.128   2.320
  660BF       F10297   1.748   1.252   2.381
  660BF       F10298   1.655   1.045   2.372
  660BF       F10299   1.730   1.138   2.183
  660BF       F10300   1.876   1.069   2.346
  661BF       B10301   4.375   0.812   2.359
  661BF       F10302   4.420   0.683   2.383
  661BF       F10303   4.259   0.833   2.431
  661BF       F10304   4.475   0.900   2.404
  661BF       F10305   4.348   0.832   2.225
  662BF       B10306   4.987   0.934   0.757
  662BF       F10307   0.072   0.941   0.709
  662BF       F10308   4.997   0.892   0.889
  662BF       F10309   4.933   1.062   0.751
  662BF       F10310   4.918   0.843   0.680
  663BF       B10311   4.379   0.428   3.953
  663BF       F10312   4.342   0.312   3.885
  663BF       F10313   4.507   0.469   3.914
  663BF       F10314   4.291   0.530   3.923
  663BF       F10315   4.377   0.406   4.090
  664BF       B10316   0.465   0.044   3.058
  664BF       F10317   0.542   4.974   3.072
  664BF       F10318   0.331   0.011   3.072
  664BF       F10319   0.497   0.136   3.159
  664BF       F10320   0.488   0.101   2.933
  665BF       B10321   2.735   0.346   2.518
  665BF       F10322   2.829   0.300   2.611
  665BF       F10323   2.765   0.477   2.485
  665BF       F10324   2.738   0.267   2.405
  665BF       F10325   2.611   0.338   2.579
  666BF       B10326   3.364   1.957   0.856
  666BF       F10327   3.366   1.961   0.995
  666BF       F10328   3.244   2.013   0.813
  666BF       F10329   3.471   2.029   0.809
  666BF       F10330   3.375   1.825   0.815
  667BF       B10331   4.859   1.410   3.464
  667BF       F10332   4.997   1.427   3.459
  667BF       F10333   4.810   1.372   3.338
  667BF       F10334   4.831   1.311   3.557
  667BF       F10335   4.798   1.529   3.500
  668BF       B10336   3.789   2.463   0.537
  668BF       F10337   3.761   2.345   0.470
  668BF       F10338   3.680   2.547   0.529
  668BF       F10339   3.818   2.436   0.671
  668BF       F10340   3.899   2.523   0.475
  669BF       B10341   2.008   1.176   1.059
  669BF       F10342   2.060   1.049   1.037
  669BF       F10343   2.108   1.270   1.037
  669BF       F10344   1.899   1.197   0.979
  669BF       F10345   1.965   1.181   1.190
  670BF       B10346   1.505   4.964   4.293
  670BF       F10347   1.606   4.905   4.367
  670BF       F10348   1.384   4.907   4.329
  670BF       F10349   1.501   0.055   4.318
  670BF       F10350   1.527   4.938   4.158
  671BF       B10351   2.240   1.190   2.148
  671BF       F10352   2.197   1.071   2.206
  671BF       F10353   2.157   1.294   2.188
  671BF       F10354   2.370   1.219   2.186
  671BF       F10355   2.236   1.176   2.009
  672BF       B10356   2.531   0.973   4.897
  672BF       F10357   2.441   0.943   4.796
  672BF       F10358   2.464   0.965   5.019
  672BF       F10359   2.638   0.884   4.901
  672BF       F10360   2.575   1.102   4.879
  673BF       B10361   3.711   4.893   3.533
  673BF       F10362   3.767   5.015   3.568
  673BF       F10363   3.613   4.913   3.438
  673BF       F10364   3.810   4.811   3.480
  673BF       F10365   3.658   4.833   3.648
  674BF       B10366   2.490   2.282   1.820
  674BF       F10367   2.408   2.171   1.808
  674BF       F10368   2.586   2.263   1.919
  674BF       F10369   2.546   2.314   1.697
  674BF       F10370   2.414   2.390   1.862
  675BF       B10371   0.291   3.237   4.790
  675BF       F10372   0.262   3.106   4.753
  675BF       F10373   0.176   3.315   4.785
  675BF       F10374   0.336   3.234   4.922
  675BF       F10375   0.391   3.288   4.708
  676BF       B10376   1.425   0.135   0.029
  676BF       F10377   1.547   0.202   0.018
  676BF       F10378   1.441   0.007   5.022
  676BF       F10379   1.389   0.133   0.163
  676BF       F10380   1.332   0.207   5.001
  677BF       B10381   1.314   1.860   3.953
  677BF       F10382   1.252   1.838   4.075
  677BF       F10383   1.239   1.949   3.879
  677BF       F10384   1.442   1.909   3.976
  677BF       F10385   1.323   1.739   3.883
  678BF       B10386   1.817   2.362   2.766
  678BF       F10387   1.753   2.416   2.655
  678BF       F10388   1.944   2.317   2.728
  678BF       F10389   1.832   2.460   2.862
  678BF       F10390   1.745   2.258   2.821
  679BF       B10391   0.821   0.191   3.056
  679BF       F10392   0.909   0.274   3.125
  679BF       F10393   0.886   0.133   2.947
  679BF       F10394   0.780   0.091   3.141
  679BF       F10395   0.715   0.270   3.013
  680BF       B10396   2.608   0.880   2.210
  680BF       F10397   2.646   0.766   2.140
  680BF       F10398   2.703   0.980   2.198
  680BF       F10399   2.487   0.926   2.160
  680BF       F10400   2.596   0.847   2.345
  681BF       B10401   4.109   0.915   5.007
  681BF       F10402   4.135   0.789   0.014
  681BF       F10403   3.977   0.950   5.041
  681BF       F10404   4.199   1.006   0.014
  681BF       F10405   4.122   0.910   4.869
  682BF       B10406   4.891   1.131   1.461
  682BF       F10407   4.960   1.199   1.360
  682BF       F10408   4.858   1.003   1.421
  682BF       F10409   4.972   1.127   1.575
  682BF       F10410   4.779   1.204   1.497
  683BF       B10411   0.165   0.336   0.935
  683BF       F10412   0.069   0.368   0.841
  683BF       F10413   0.285   0.397   0.900
  683BF       F10414   0.126   0.384   1.059
  683BF       F10415   0.181   0.198   0.944
  684BF       B10416   3.356   4.600   4.234
  684BF       F10417   3.311   4.469   4.226
  684BF       F10418   3.265   4.685   4.175
  684BF       F10419   3.371   4.633   4.368
  684BF       F10420   3.480   4.607   4.171
  685BF       B10421   4.595   0.008   4.336
  685BF       F10422   4.717   0.075   4.324
  685BF       F10423   4.490   0.100   4.336
  685BF       F10424   4.578   4.966   4.228
  685BF       F10425   4.591   4.980   4.454
  686BF       B10426   4.256   1.142   0.651
  686BF       F10427   4.230   1.165   0.786
  686BF       F10428   4.240   1.007   0.626
  686BF       F10429   4.163   1.213   0.575
  686BF       F10430   4.386   1.180   0.621
  687BF       B10431   4.103   4.111   1.868
  687BF       F10432   4.004   4.191   1.812
  687BF       F10433   4.049   3.986   1.894
  687BF       F10434   4.212   4.099   1.783
  687BF       F10435   4.144   4.165   1.990
  688BF       B10436   2.430   0.029   2.403
  688BF       F10437   2.456   5.009   2.523
  688BF       F10438   2.315   5.021   2.345
  688BF       F10439   2.414   0.164   2.430
  688BF       F10440   2.535   0.010   2.315
  689BF       B10441   4.960   3.223   2.313
  689BF       F10442   4.834   3.225   2.254
  689BF       F10443   4.987   3.350   2.362
  689BF       F10444   4.960   3.130   2.416
  689BF       F10445   0.011   3.192   2.217
  690BF       B10446   3.603   0.155   1.941
  690BF       F10447   3.554   0.047   1.868
  690BF       F10448   3.624   0.262   1.857
  690BF       F10449   3.508   0.190   2.039
  690BF       F10450   3.719   0.117   2.006
  691BF       B10451   1.586   4.729   1.636
  691BF       F10452   1.525   4.828   1.712
  691BF       F10453   1.720   4.764   1.621
  691BF       F10454   1.583   4.605   1.698
  691BF       F10455   1.526   4.721   1.511
  692BF       B10456   1.521   4.143   0.791
  692BF       F10457   1.512   4.188   0.661
  692BF       F10458   1.619   4.218   0.853
  692BF       F10459   1.400   4.156   0.856
  692BF       F10460   1.559   4.009   0.796
  693BF       B10461   3.119   0.430   3.948
  693BF       F10462   3.014   0.473   4.028
  693BF       F10463   3.141   0.519   3.844
  693BF       F10464   3.237   0.417   4.021
  693BF       F10465   3.085   0.307   3.896
  694BF       B10466   4.531   1.501   3.783
  694BF       F10467   4.597   1.384   3.747
  694BF       F10468   4.394   1.479   3.777
  694BF       F10469   4.564   1.534   3.914
  694BF       F10470   4.566   1.605   3.698
  695BF       B10471   1.324   2.075   0.452
  695BF       F10472   1.368   1.997   0.345
  695BF       F10473   1.363   2.020   0.573
  695BF       F10474   1.376   2.204   0.441
  695BF       F10475   1.186   2.084   0.452
  696BF       B10476   2.970   0.672   4.543
  696BF       F10477   3.032   0.787   4.587
  696BF       F10478   2.898   0.613   4.648
  696BF       F10479   2.884   0.707   4.440
  696BF       F10480   3.064   0.580   4.500
  697BF       B10481   1.588   4.220   3.399
  697BF       F10482   1.515   4.104   3.420
  697BF       F10483   1.523   4.306   3.312
  697BF       F10484   1.607   4.285   3.521
  697BF       F10485   1.712   4.191   3.344
  698BF       B10486   4.164   1.932   2.625
  698BF       F10487   4.232   1.816   2.591
  698BF       F10488   4.035   1.931   2.575
  698BF       F10489   4.158   1.944   2.762
  698BF       F10490   4.232   2.038   2.567
  699BF       B10491   4.405   4.277   4.922
  699BF       F10492   4.423   4.267   4.785
  699BF       F10493   4.370   4.407   4.956
  699BF       F10494   4.300   4.192   4.957
  699BF       F10495   4.519   4.237   4.990
  700BF       B10496   2.029   0.199   2.114
  700BF       F10497   2.166   0.181   2.115
  700BF       F10498   1.990   0.276   2.223
  700BF       F10499   1.996   0.264   1.995
  700BF       F10500   1.972   0.073   2.121
  701BF       B10501   3.481   1.588   2.557
  701BF       F10502   3.603   1.622   2.497
  701BF       F10503   3.386   1.567   2.458
  701BF       F10504   3.498   1.476   2.635
  701BF       F10505   3.437   1.695   2.633
  702BF       B10506   3.251   3.108   4.274
  702BF       F10507   3.289   3.175   4.158
  702BF       F10508   3.166   3.191   4.345
  702BF       F10509   3.184   2.991   4.241
  702BF       F10510   3.365   3.078   4.347
  703BF       B10511   1.671   3.412   1.359
  703BF       F10512   1.650   3.276   1.339
  703BF       F10513   1.557   3.469   1.413
  703BF       F10514   1.779   3.431   1.445
  703BF       F10515   1.704   3.476   1.241
  704BF       B10516   1.253   1.343   2.626
  704BF       F10517   1.358   1.417   2.681
  704BF       F10518   1.141   1.362   2.704
  704BF       F10519   1.224   1.388   2.499
  704BF       F10520   1.291   1.209   2.625
  705BF       B10521   3.264   3.458   4.939
  705BF       F10522   3.137   3.450   4.993
  705BF       F10523   3.266   3.555   4.839
  705BF       F10524   3.355   3.495   5.039
  705BF       F10525   3.302   3.337   4.883
  706BF       B10526   2.067   1.826   0.101
  706BF       F10527   2.150   1.926   0.151
  706BF       F10528   1.939   1.839   0.155
  706BF       F10529   2.063   1.829   5.008
  706BF       F10530   2.114   1.701   0.134
  707BF       B10531   2.649   3.396   0.368
  707BF       F10532   2.687   3.527   0.402
  707BF       F10533   2.729   3.351   0.266
  707BF       F10534   2.656   3.313   0.478
  707BF       F10535   2.516   3.398   0.327
  708BF       B10536   2.298   0.442   0.668
  708BF       F10537   2.327   0.465   0.801
  708BF       F10538   2.184   0.511   0.633
  708BF       F10539   2.406   0.484   0.591
  708BF       F10540   2.280   0.305   0.651
  709BF       B10541   2.190   4.610   2.156
  709BF       F10542   2.067   4.673   2.158
  709BF       F10543   2.168   4.474   2.145
  709BF       F10544   2.269   4.652   2.049
  709BF       F10545   2.256   4.634   2.276
  710BF       B10546   1.051   2.622   3.656
  710BF       F10547   1.179   2.662   3.627
  710BF       F10548   1.052   2.540   3.767
  710BF       F10549   0.981   2.738   3.684
  710BF       F10550   0.997   2.556   3.546
  711BF       B10551   1.566   1.194   1.655
  711BF       F10552   1.590   1.200   1.519
  711BF       F10553   1.681   1.199   1.731
  711BF       F10554   1.484   1.300   1.690
  711BF       F10555   1.502   1.074   1.678
  712BF       B10556   3.335   1.583   3.013
  712BF       F10557   3.210   1.563   2.957
  712BF       F10558   3.431   1.593   2.914
  712BF       F10559   3.331   1.701   3.086
  712BF       F10560   3.367   1.473   3.093
  713BF       B10561   4.018   4.113   0.769
  713BF       F10562   4.154   4.096   0.761
  713BF       F10563   3.986   4.173   0.891
  713BF       F10564   3.977   4.193   0.665
  713BF       F10565   3.951   3.990   0.764
  714BF       B10566   2.287   0.614   2.257
  714BF       F10567   2.340   0.561   2.374
  714BF       F10568   2.389   0.661   2.178
  714BF       F10569   2.223   0.514   2.185
  714BF       F10570   2.196   0.714   2.285
  715BF       B10571   2.129   4.824   4.425
  715BF       F10572   2.065   4.948   4.427
  715BF       F10573   2.188   4.797   4.547
  715BF       F10574   2.034   4.725   4.400
  715BF       F10575   2.223   4.823   4.323
  716BF       B10576   4.249   3.092   1.281
  716BF       F10577   4.138   3.020   1.238
  716BF       F10578   4.207   3.189   1.371
  716BF       F10579   4.336   3.004   1.344
  716BF       F10580   4.304   3.153   1.170
  717BF       B10581   0.540   0.571   1.451
  717BF       F10582   0.623   0.683   1.449
  717BF       F10583   0.438   0.583   1.360
  717BF       F10584   0.620   0.462   1.421
  717BF       F10585   0.485   0.556   1.577
  718BF       B10586   1.092   2.887   0.417
  718BF       F10587   0.997   2.841   0.328
  718BF       F10588   1.221   2.862   0.375
  718BF       F10589   1.079   3.022   0.435
  718BF       F10590   1.078   2.821   0.538
  719BF       B10591   2.465   2.636   4.335
  719BF       F10592   2.540   2.524   4.367
  719BF       F10593   2.382   2.602   4.231
  719BF       F10594   2.383   2.674   4.440
  719BF       F10595   2.547   2.740   4.296
  720BF       B10596   2.742   1.400   0.364
  720BF       F10597   2.788   1.522   0.317
  720BF       F10598   2.633   1.357   0.287
  720BF       F10599   2.840   1.301   0.356
  720BF       F10600   2.702   1.412   0.496
  721BF       B10601   0.704   3.556   0.649
  721BF       F10602   0.638   3.435   0.657
  721BF       F10603   0.614   3.660   0.637
  721BF       F10604   0.771   3.574   0.769
  721BF       F10605   0.793   3.555   0.543
  722BF       B10606   3.847   3.436   2.227
  722BF       F10607   3.980   3.436   2.189
  722BF       F10608   3.825   3.534   2.322
  722BF       F10609   3.766   3.461   2.116
  722BF       F10610   3.811   3.312   2.278
  723BF       B10611   2.269   3.144   3.225
  723BF       F10612   2.353   3.184   3.329
  723BF       F10613   2.347   3.096   3.119
  723BF       F10614   2.187   3.043   3.268
  723BF       F10615   2.195   3.252   3.178
  724BF       B10616   3.949   3.828   1.577
  724BF       F10617   3.858   3.784   1.480
  724BF       F10618   4.025   3.721   1.619
  724BF       F10619   4.027   3.930   1.525
  724BF       F10620   3.875   3.881   1.681
  725BF       B10621   1.285   2.190   3.538
  725BF       F10622   1.327   2.317   3.573
  725BF       F10623   1.147   2.194   3.528
  725BF       F10624   1.341   2.153   3.416
  725BF       F10625   1.319   2.095   3.633
  726BF       B10626   4.181   2.083   3.523
  726BF       F10627   4.169   2.142   3.398
  726BF       F10628   4.308   2.028   3.537
  726BF       F10629   4.158   2.177   3.622
  726BF       F10630   4.085   1.982   3.534
  727BF       B10631   0.869   1.461   3.414
  727BF       F10632   0.923   1.354   3.345
  727BF       F10633   0.939   1.475   3.532
  727BF       F10634   0.887   1.575   3.337
  727BF       F10635   0.734   1.433   3.433
  728BF       B10636   4.581   3.031   1.042
  728BF       F10637   4.662   2.932   0.988
  728BF       F10638   4.653   3.148   1.058
  728BF       F10639   4.473   3.052   0.956
  728BF       F10640   4.532   2.982   1.160
  729BF       B10641   3.131   4.748   3.737
  729BF       F10642   3.235   4.738   3.830
  729BF       F10643   3.155   4.851   3.646
  729BF       F10644   3.122   4.629   3.666
  729BF       F10645   3.011   4.773   3.803
  730BF       B10646   3.593   4.039   5.004
  730BF       F10647   3.681   4.112   0.037
  730BF       F10648   3.657   3.923   4.963
  730BF       F10649   3.479   4.010   0.034
  730BF       F10650   3.556   4.113   4.892
  731BF       B10651   2.962   0.624   2.947
  731BF       F10652   2.956   0.506   2.874
  731BF       F10653   2.856   0.627   3.037
  731BF       F10654   3.082   0.629   3.017
  731BF       F10655   2.954   0.728   2.856
  732BF       B10656   2.110   0.973   2.806
  732BF       F10657   2.148   1.084   2.733
  732BF       F10658   1.994   1.004   2.872
  732BF       F10659   2.091   0.863   2.722
  732BF       F10660   2.211   0.937   2.896
  733BF       B10661   2.788   0.055   4.068
  733BF       F10662   2.848   4.976   4.085
  733BF       F10663   2.878   0.157   4.097
  733BF       F10664   2.739   0.071   3.939
  733BF       F10665   2.684   0.063   4.158
  734BF       B10666   3.186   3.104   3.034
  734BF       F10667   3.237   2.976   3.034
  734BF       F10668   3.247   3.180   2.934
  734BF       F10669   3.052   3.090   3.006
  734BF       F10670   3.204   3.165   3.158
  735BF       B10671   4.301   1.491   0.767
  735BF       F10672   4.324   1.619   0.816
  735BF       F10673   4.396   1.406   0.824
  735BF       F10674   4.173   1.451   0.804
  735BF       F10675   4.314   1.494   0.629
  736BF       B10676   0.671   1.236   1.494
  736BF       F10677   0.556   1.311   1.499
  736BF       F10678   0.684   1.169   1.614
  736BF       F10679   0.661   1.146   1.388
  736BF       F10680   0.782   1.317   1.473
  737BF       B10681   0.578   0.368   2.555
  737BF       F10682   0.588   0.503   2.528
  737BF       F10683   0.707   0.316   2.559
  737BF       F10684   0.516   0.348   2.677
  737BF       F10685   0.508   0.304   2.452
  738BF       B10686   2.018   3.130   4.148
  738BF       F10687   2.029   3.253   4.084
  738BF       F10688   1.895   3.115   4.211
  738BF       F10689   2.040   3.026   4.062
  738BF       F10690   2.115   3.127   4.247
  739BF       B10691   0.158   0.905   1.379
  739BF       F10692   0.070   0.847   1.289
  739BF       F10693   0.192   1.032   1.335
  739BF       F10694   0.105   0.910   1.507
  739BF       F10695   0.277   0.834   1.383
  740BF       B10696   3.006   3.353   0.435
  740BF       F10697   2.936   3.235   0.460
  740BF       F10698   3.125   3.344   0.505
  740BF       F10699   3.032   3.366   0.300
  740BF       F10700   2.936   3.462   0.486
  741BF       B10701   2.695   3.582   4.565
  741BF       F10702   2.679   3.660   4.452
  741BF       F10703   2.827   3.591   4.607
  741BF       F10704   2.611   3.629   4.665
  741BF       F10705   2.663   3.451   4.533
  742BF       B10706   4.995   3.727   2.507
  742BF       F10707   0.005   3.817   2.416
  742BF       F10708   4.887   3.665   2.445
  742BF       F10709   0.045   3.635   2.545
  742BF       F10710   4.949   3.799   2.617
  743BF       B10711   4.294   4.506   2.058
  743BF       F10712   4.280   4.405   2.152
  743BF       F10713   4.230   4.468   1.941
  743BF       F10714   4.237   4.621   2.110
  743BF       F10715   4.430   4.525   2.034
  744BF       B10716   4.396   0.731   1.296
  744BF       F10717   4.423   0.619   1.373
  744BF       F10718   4.301   0.705   1.199
  744BF       F10719   4.352   0.835   1.378
  744BF       F10720   4.515   0.771   1.237
  745BF       B10721   3.179   1.358   1.415
  745BF       F10722   3.282   1.398   1.495
  745BF       F10723   3.085   1.280   1.482
  745BF       F10724   3.120   1.474   1.368
  745BF       F10725   3.234   1.285   1.311
  746BF       B10726   3.494   2.385   4.323
  746BF       F10727   3.534   2.510   4.277
  746BF       F10728   3.367   2.394   4.375
  746BF       F10729   3.491   2.299   4.213
  746BF       F10730   3.585   2.340   4.418
  747BF       B10731   1.526   4.204   4.906
  747BF       F10732   1.643   4.268   4.943
  747BF       F10733   1.516   4.079   4.966
  747BF       F10734   1.416   4.280   4.944
  747BF       F10735   1.528   4.189   4.768
  748BF       B10736   4.136   4.589   0.768
  748BF       F10737   4.085   4.513   0.664
  748BF       F10738   4.054   4.698   0.793
  748BF       F10739   4.143   4.510   0.883
  748BF       F10740   4.263   4.634   0.734
  749BF       B10741   2.861   1.164   4.684
  749BF       F10742   2.884   1.028   4.673
  749BF       F10743   2.735   1.196   4.635
  749BF       F10744   2.867   1.198   4.817
  749BF       F10745   2.957   1.234   4.613
  750BF       B10746   3.476   0.690   1.440
  750BF       F10747   3.368   0.624   1.383
  750BF       F10748   3.549   0.604   1.519
  750BF       F10749   3.552   0.747   1.338
  750BF       F10750   3.431   0.793   1.522
  751BF       B10751   0.596   2.270   4.832
  751BF       F10752   0.636   2.371   4.745
  751BF       F10753   0.667   2.278   4.952
  751BF       F10754   0.460   2.280   4.858
  751BF       F10755   0.620   2.148   4.771
  752BF       B10756   2.992   4.757   1.727
  752BF       F10757   3.121   4.737   1.680
  752BF       F10758   2.940   4.640   1.779
  752BF       F10759   2.997   4.845   1.833
  752BF       F10760   2.908   4.807   1.627
  753BF       B10761   1.822   0.396   4.368
  753BF       F10762   1.831   0.494   4.467
  753BF       F10763   1.741   0.441   4.265
  753BF       F10764   1.947   0.365   4.317
  753BF       F10765   1.768   0.281   4.426
  754BF       B10766   4.922   2.541   0.697
  754BF       F10767   5.017   2.444   0.721
  754BF       F10768   4.853   2.513   0.579
  754BF       F10769   4.830   2.546   0.801
  754BF       F10770   4.987   2.664   0.682
  755BF       B10771   1.709   3.062   2.110
  755BF       F10772   1.691   3.181   2.042
  755BF       F10773   1.611   2.971   2.071
  755BF       F10774   1.836   3.012   2.084
  755BF       F10775   1.699   3.089   2.246
  756BF       B10776   0.184   3.764   1.442
  756BF       F10777   0.276   3.817   1.533
  756BF       F10778   0.239   3.766   1.314
  756BF       F10779   0.157   3.632   1.478
  756BF       F10780   0.067   3.839   1.445
  757BF       B10781   4.878   5.027   1.658
  757BF       F10782   4.744   5.031   1.693
  757BF       F10783   4.951   0.058   1.749
  757BF       F10784   4.919   4.894   1.664
  757BF       F10785   4.894   0.032   1.528
  758BF       B10786   1.933   2.436   3.961
  758BF       F10787   1.805   2.476   3.926
  758BF       F10788   1.986   2.525   4.055
  758BF       F10789   1.929   2.309   4.018
  758BF       F10790   2.017   2.431   3.851
  759BF       B10791   3.414   3.984   2.032
  759BF       F10792   3.452   4.114   2.000
  759BF       F10793   3.295   3.956   1.965
  759BF       F10794   3.513   3.895   1.994
  759BF       F10795   3.393   3.970   2.167
  760BF       B10796   0.553   1.100   2.039
  760BF       F10797   0.520   1.092   1.905
  760BF       F10798   0.608   0.977   2.075
  760BF       F10799   0.644   1.205   2.051
  760BF       F10800   0.437   1.124   2.112
  761BF       B10801   4.918   1.909   0.413
  761BF       F10802   4.947   2.039   0.374
  761BF       F10803   4.970   1.819   0.319
  761BF       F10804   4.975   1.882   0.537
  761BF       F10805   4.780   1.893   0.422
  762BF       B10806   0.815   2.145   0.386
  762BF       F10807   0.792   2.277   0.424
  762BF       F10808   0.721   2.109   0.291
  762BF       F10809   0.942   2.135   0.334
  762BF       F10810   0.799   2.064   0.499
  763BF       B10811   2.176   1.685   3.529
  763BF       F10812   2.232   1.806   3.564
  763BF       F10813   2.270   1.612   3.456
  763BF       F10814   2.139   1.611   3.641
  763BF       F10815   2.062   1.704   3.452
  764BF       B10816   0.529   4.664   3.489
  764BF       F10817   0.411   4.730   3.523
  764BF       F10818   0.503   4.530   3.468
  764BF       F10819   0.580   4.713   3.369
  764BF       F10820   0.625   4.684   3.588
  765BF       B10821   2.195   4.155   4.417
  765BF       F10822   2.126   4.036   4.407
  765BF       F10823   2.146   4.237   4.316
  765BF       F10824   2.169   4.214   4.540
  765BF       F10825   2.328   4.128   4.402
  766BF       B10826   0.717   3.122   1.732
  766BF       F10827   0.803   3.133   1.840
  766BF       F10828   0.704   3.243   1.665
  766BF       F10829   0.771   3.027   1.647
  766BF       F10830   0.592   3.077   1.772
  767BF       B10831   1.613   2.319   1.220
  767BF       F10832   1.594   2.430   1.302
  767BF       F10833   1.714   2.240   1.273
  767BF       F10834   1.496   2.247   1.208
  767BF       F10835   1.650   2.368   1.095
  768BF       B10836   4.208   2.110   1.054
  768BF       F10837   4.293   2.017   1.110
  768BF       F10838   4.128   2.055   0.956
  768BF       F10839   4.128   2.155   1.159
  768BF       F10840   4.284   2.214   1.003
  769BF       B10841   0.562   2.942   4.325
  769BF       F10842   0.624   3.064   4.348
  769BF       F10843   0.661   2.845   4.310
  769BF       F10844   0.480   2.908   4.431
  769BF       F10845   0.488   2.949   4.209
  770BF       B10846   0.194   3.634   4.422
  770BF       F10847   0.202   3.496   4.411
  770BF       F10848   0.096   3.670   4.514
  770BF       F10849   0.318   3.685   4.462
  770BF       F10850   0.161   3.687   4.297
  771BF       B10851   4.903   2.891   4.902
  771BF       F10852   5.000   2.851   4.994
  771BF       F10853   4.880   3.027   4.918
  771BF       F10854   4.942   2.858   4.773
  771BF       F10855   4.784   2.824   4.933
  772BF       B10856   0.047   1.871   2.955
  772BF       F10857   0.006   1.968   3.043
  772BF       F10858   0.175   1.832   2.991
  772BF       F10859   5.005   1.762   2.966
  772BF       F10860   0.038   1.918   2.824
  773BF       B10861   3.579   4.757   4.960
  773BF       F10862   3.602   4.893   4.943
  773BF       F10863   3.444   4.729   4.936
  773BF       F10864   3.657   4.685   4.870
  773BF       F10865   3.608   4.722   0.045
  774BF       B10866   1.134   4.853   2.833
  774BF       F10867   1.019   4.783   2.868
  774BF       F10868   1.102   4.979   2.786
  774BF       F10869   1.217   4.862   2.946
  774BF       F10870   1.202   4.783   2.734
  775BF       B10871   1.786   3.472   4.010
  775BF       F10872   1.892   3.518   4.089
  775BF       F10873   1.676   3.550   4.042
  775BF       F10874   1.817   3.492   3.875
  775BF       F10875   1.756   3.341   4.040
  776BF       B10876   0.329   3.148   2.429
  776BF       F10877   0.246   3.037   2.421
  776BF       F10878   0.261   3.253   2.487
  776BF       F10879   0.445   3.118   2.502
  776BF       F10880   0.372   3.183   2.301
  777BF       B10881   1.413   3.447   2.791
  777BF       F10882   1.348   3.553   2.853
  777BF       F10883   1.453   3.356   2.887
  777BF       F10884   1.325   3.384   2.704
  777BF       F10885   1.527   3.486   2.721
  778BF       B10886   3.438   2.222   4.848
  778BF       F10887   3.431   2.310   4.740
  778BF       F10888   3.571   2.184   4.863
  778BF       F10889   3.393   2.285   4.963
  778BF       F10890   3.360   2.110   4.821
  779BF       B10891   3.388   4.654   3.466
  779BF       F10892   3.512   4.599   3.435
  779BF       F10893   3.293   4.559   3.427
  779BF       F10894   3.389   4.674   3.603
  779BF       F10895   3.363   4.773   3.401
  780BF       B10896   2.483   3.020   0.661
  780BF       F10897   2.365   3.050   0.728
  780BF       F10898   2.503   2.883   0.661
  780BF       F10899   2.477   3.065   0.531
  780BF       F10900   2.589   3.077   0.731
  781BF       B10901   0.390   0.664   3.879
  781BF       F10902   0.282   0.746   3.909
  781BF       F10903   0.454   0.710   3.764
  781BF       F10904   0.479   0.667   3.986
  781BF       F10905   0.346   0.535   3.857
  782BF       B10906   1.347   0.843   0.506
  782BF       F10907   1.444   0.745   0.527
  782BF       F10908   1.411   0.962   0.486
  782BF       F10909   1.273   0.810   0.392
  782BF       F10910   1.263   0.854   0.617
  783BF       B10911   3.474   2.540   3.272
  783BF       F10912   3.612   2.534   3.266
  783BF       F10913   3.435   2.642   3.358
  783BF       F10914   3.426   2.570   3.145
  783BF       F10915   3.421   2.419   3.314
  784BF       B10916   0.540   0.277   0.408
  784BF       F10917   0.535   0.412   0.380
  784BF       F10918   0.670   0.251   0.451
  784BF       F10919   0.445   0.252   0.506
  784BF       F10920   0.511   0.208   0.291
  785BF       B10921   3.479   1.730   4.095
  785BF       F10922   3.384   1.793   4.173
  785BF       F10923   3.431   1.603   4.063
  785BF       F10924   3.500   1.803   3.978
  785BF       F10925   3.598   1.719   4.166
  786BF       B10926   4.349   1.223   1.517
  786BF       F10927   4.483   1.203   1.491
  786BF       F10928   4.328   1.351   1.568
  786BF       F10929   4.275   1.209   1.401
  786BF       F10930   4.306   1.132   1.613
  787BF       B10931   1.138   4.182   3.380
  787BF       F10932   1.043   4.265   3.322
  787BF       F10933   1.225   4.136   3.281
  787BF       F10934   1.211   4.255   3.473
  787BF       F10935   1.075   4.080   3.447
  788BF       B10936   5.028   2.779   2.014
  788BF       F10937   0.040   2.895   1.966
  788BF       F10938   4.936   2.731   1.920
  788BF       F10939   0.083   2.683   2.029
  788BF       F10940   4.964   2.802   2.135
  789BF       B10941   2.434   0.802   0.809
  789BF       F10942   2.503   0.719   0.899
  789BF       F10943   2.509   0.814   0.693
  789BF       F10944   2.310   0.748   0.779
  789BF       F10945   2.416   0.927   0.865
  790BF       B10946   2.844   0.348   3.365
  790BF       F10947   2.940   0.264   3.312
  790BF       F10948   2.742   0.270   3.419
  790BF       F10949   2.904   0.428   3.460
  790BF       F10950   2.789   0.429   3.266
  791BF       B10951   3.070   4.383   0.501
  791BF       F10952   3.123   4.387   0.629
  791BF       F10953   2.975   4.484   0.493
  791BF       F10954   3.167   4.404   0.407
  791BF       F10955   3.006   4.262   0.479
  792BF       B10956   3.133   1.265   1.992
  792BF       F10957   3.190   1.386   1.950
  792BF       F10958   3.159   1.247   2.127
  792BF       F10959   2.998   1.274   1.971
  792BF       F10960   3.182   1.157   1.921
  793BF       B10961   2.734   3.489   1.113
  793BF       F10962   2.702   3.386   1.029
  793BF       F10963   2.871   3.493   1.115
  793BF       F10964   2.686   3.612   1.069
  793BF       F10965   2.680   3.459   1.237
  794BF       B10966   0.949   3.827   0.366
  794BF       F10967   0.953   3.949   0.430
  794BF       F10968   1.016   3.736   0.446
  794BF       F10969   0.817   3.792   0.347
  794BF       F10970   1.014   3.841   0.244
  795BF       B10971   2.607   1.919   3.738
  795BF       F10972   2.602   1.926   3.876
  795BF       F10973   2.564   1.794   3.694
  795BF       F10974   2.527   2.018   3.680
  795BF       F10975   2.738   1.944   3.696
  796BF       B10976   0.821   1.292   4.864
  796BF       F10977   0.940   1.264   4.798
  796BF       F10978   0.729   1.349   4.777
  796BF       F10979   0.770   1.173   4.913
  796BF       F10980   0.846   1.377   4.971
  797BF       B10981   4.076   2.880   0.680
  797BF       F10982   4.033   2.893   0.549
  797BF       F10983   4.028   2.987   0.755
  797BF       F10984   4.038   2.759   0.734
  797BF       F10985   4.214   2.883   0.681
  798BF       B10986   1.874   1.132   0.024
  798BF       F10987   1.902   1.001   0.063
  798BF       F10988   1.753   1.132   5.001
  798BF       F10989   1.864   1.213   0.136
  798BF       F10990   1.973   1.181   4.986
  799BF       B10991   3.180   1.361   4.331
  799BF       F10992   3.210   1.303   4.453
  799BF       F10993   3.210   1.276   4.225
  799BF       F10994   3.046   1.394   4.324
  799BF       F10995   3.254   1.478   4.319
  800BF       B10996   2.853   1.445   5.013
  800BF       F10997   2.896   1.487   4.888
  800BF       F10998   2.925   1.332   0.008
  800BF       F10999   2.874   1.549   0.056
  800BF       F11000   2.717   1.416   5.004
  801BF       B11001   1.827   2.920   3.359
  801BF       F11002   1.948   2.976   3.396
  801BF       F11003   1.763   2.856   3.463
  801BF       F11004   1.742   3.019   3.310
  801BF       F11005   1.852   2.831   3.254
  802BF       B11006   0.027   3.160   0.945
  802BF       F11007   4.975   3.260   0.944
  802BF       F11008   5.012   3.038   0.975
  802BF       F11009   0.085   3.151   0.819
  802BF       F11010   0.124   3.190   1.040
  803BF       B11011   1.015   4.390   1.055
  803BF       F11012   1.114   4.455   0.982
  803BF       F11013   0.958   4.288   0.979
  803BF       F11014   1.071   4.332   1.168
  803BF       F11015   0.921   4.484   1.094
  804BF       B11016   4.241   0.546   4.523
  804BF       F11017   4.345   0.592   4.444
  804BF       F11018   4.279   0.429   4.586
  804BF       F11019   4.209   0.643   4.617
  804BF       F11020   4.129   0.524   4.443
  805BF       B11021   4.279   1.163   3.547
  805BF       F11022   4.300   1.025   3.545
  805BF       F11023   4.193   1.200   3.445
  805BF       F11024   4.221   1.197   3.668
  805BF       F11025   4.402   1.226   3.529
  806BF       B11026   1.015   3.427   1.614
  806BF       F11027   0.975   3.296   1.594
  806BF       F11028   1.121   3.461   1.529
  806BF       F11029   0.909   3.513   1.590
  806BF       F11030   1.063   3.440   1.743
  807BF       B11031   4.022   1.917   3.132
  807BF       F11032   4.115   1.832   3.191
  807BF       F11033   4.078   2.038   3.092
  807BF       F11034   3.969   1.855   3.019
  807BF       F11035   3.919   1.940   3.223
  808BF       B11036   2.342   1.772   4.017
  808BF       F11037   2.211   1.746   4.057
  808BF       F11038   2.361   1.909   4.015
  808BF       F11039   2.430   1.711   4.105
  808BF       F11040   2.360   1.719   3.890
  809BF       B11041   4.888   4.487   0.017
  809BF       F11042   4.777   4.504   0.101
  809BF       F11043   4.905   4.602   4.986
  809BF       F11044   5.001   4.466   0.095
  809BF       F11045   4.868   4.376   4.980
  810BF       B11046   2.890   1.741   0.641
  810BF       F11047   2.807   1.741   0.530
  810BF       F11048   2.853   1.848   0.722
  810BF       F11049   2.873   1.623   0.713
  810BF       F11050   3.022   1.756   0.602
  811BF       B11051   3.105   0.759   4.141
  811BF       F11052   2.981   0.708   4.179
  811BF       F11053   3.106   0.772   4.002
  811BF       F11054   3.121   0.886   4.194
  811BF       F11055   3.210   0.678   4.181
  812BF       B11056   2.396   2.693   3.696
  812BF       F11057   2.310   2.629   3.784
  812BF       F11058   2.521   2.635   3.710
  812BF       F11059   2.355   2.676   3.565
  812BF       F11060   2.407   2.828   3.724
  813BF       B11061   1.110   3.189   1.053
  813BF       F11062   1.213   3.163   0.966
  813BF       F11063   0.997   3.233   0.987
  813BF       F11064   1.085   3.069   1.122
  813BF       F11065   1.153   3.286   1.141
  814BF       B11066   4.219   3.455   5.017
  814BF       F11067   4.100   3.524   5.039
  814BF       F11068   4.327   3.529   0.021
  814BF       F11069   4.214   3.335   0.041
  814BF       F11070   4.231   3.432   4.881
  815BF       B11071   2.592   1.879   4.563
  815BF       F11072   2.626   1.987   4.643
  815BF       F11073   2.699   1.793   4.551
  815BF       F11074   2.484   1.812   4.620
  815BF       F11075   2.557   1.918   4.436
  816BF       B11076   0.415   3.001   1.338
  816BF       F11077   0.455   3.133   1.323
  816BF       F11078   0.335   2.987   1.450
  816BF       F11079   0.346   2.960   1.226
  816BF       F11080   0.528   2.921   1.356
  817BF       B11081   0.632   3.362   2.031
  817BF       F11082   0.615   3.466   2.120
  817BF       F11083   0.533   3.267   2.046
  817BF       F11084   0.631   3.412   1.901
  817BF       F11085   0.757   3.305   2.059
  818BF       B11086   3.025   4.721   3.032
  818BF       F11087   3.084   4.846   3.030
  818BF       F11088   3.118   4.621   3.014
  818BF       F11089   2.959   4.698   3.152
  818BF       F11090   2.930   4.717   2.929
  819BF       B11091   2.898   1.543   3.671
  819BF       F11092   2.869   1.664   3.730
  819BF       F11093   2.876   1.549   3.534
  819BF       F11094   3.031   1.511   3.694
  819BF       F11095   2.815   1.445   3.726
  820BF       B11096   4.041   2.907   2.925
  820BF       F11097   4.146   2.837   2.869
  820BF       F11098   3.962   2.820   3.000
  820BF       F11099   4.089   3.010   3.005
  820BF       F11100   3.959   2.960   2.826
  821BF       B11101   2.799   4.137   2.379
  821BF       F11102   2.934   4.110   2.382
  821BF       F11103   2.779   4.275   2.378
  821BF       F11104   2.745   4.084   2.261
  821BF       F11105   2.740   4.082   2.492
  822BF       B11106   1.226   0.724   2.749
  822BF       F11107   1.104   0.785   2.775
  822BF       F11108   1.308   0.811   2.679
  822BF       F11109   1.291   0.688   2.866
  822BF       F11110   1.206   0.609   2.675
  823BF       B11111   4.034   1.301   4.674
  823BF       F11112   4.012   1.241   4.552
  823BF       F11113   4.158   1.362   4.665
  823BF       F11114   3.931   1.390   4.697
  823BF       F11115   4.030   1.199   4.769
  824BF       B11116   3.399   1.911   0.448
  824BF       F11117   3.506   1.940   0.532
  824BF       F11118   3.283   1.970   0.498
  824BF       F11119   3.424   1.957   0.320
  824BF       F11120   3.384   1.773   0.445
  825BF       B11121   2.034   3.110   3.725
  825BF       F11122   2.049   3.226   3.801
  825BF       F11123   1.954   3.141   3.617
  825BF       F11124   2.160   3.073   3.679
  825BF       F11125   1.977   3.009   3.800
  826BF       B11126   0.993   4.412   4.001
  826BF       F11127   1.097   4.323   3.976
  826BF       F11128   1.042   4.508   4.089
  826BF       F11129   0.955   4.474   3.883
  826BF       F11130   0.886   4.344   4.055
  827BF       B11131   2.750   2.043   1.732
  827BF       F11132   2.682   2.061   1.613
  827BF       F11133   2.664   1.992   1.829
  827BF       F11134   2.852   1.950   1.711
  827BF       F11135   2.805   2.160   1.781
  828BF       B11136   1.094   0.823   3.723
  828BF       F11137   1.117   0.718   3.809
  828BF       F11138   1.193   0.919   3.732
  828BF       F11139   1.090   0.771   3.595
  828BF       F11140   0.969   0.880   3.750
  829BF       B11141   0.546   3.773   3.697
  829BF       F11142   0.654   3.739   3.616
  829BF       F11143   0.523   3.910   3.684
  829BF       F11144   0.436   3.699   3.659
  829BF       F11145   0.580   3.743   3.829
  830BF       B11146   4.909   1.896   1.584
  830BF       F11147   4.857   1.849   1.704
  830BF       F11148   4.953   1.788   1.507
  830BF       F11149   4.809   1.965   1.517
  830BF       F11150   5.017   1.979   1.608
  831BF       B11151   1.047   3.249   4.581
  831BF       F11152   1.069   3.114   4.558
  831BF       F11153   1.124   3.324   4.493
  831BF       F11154   0.914   3.278   4.557
  831BF       F11155   1.083   3.281   4.712
  832BF       B11156   2.546   3.358   1.676
  832BF       F11157   2.464   3.357   1.564
  832BF       F11158   2.636   3.464   1.665
  832BF       F11159   2.469   3.376   1.790
  832BF       F11160   2.618   3.240   1.682
  833BF       B11161   1.111   3.926   4.164
  833BF       F11162   1.238   3.983   4.157
  833BF       F11163   1.040   3.992   4.262
  833BF       F11164   1.047   3.940   4.042
  833BF       F11165   1.118   3.790   4.195
  834BF       B11166   3.626   0.955   0.847
  834BF       F11167   3.539   0.868   0.782
  834BF       F11168   3.757   0.917   0.819
  834BF       F11169   3.603   1.082   0.798
  834BF       F11170   3.604   0.953   0.983
  835BF       B11171   2.505   1.465   1.113
  835BF       F11172   2.629   1.407   1.126
  835BF       F11173   2.520   1.587   1.050
  835BF       F11174   2.421   1.379   1.043
  835BF       F11175   2.456   1.482   1.240
  836BF       B11176   1.893   0.435   3.321
  836BF       F11177   2.021   0.445   3.373
  836BF       F11178   1.869   0.303   3.283
  836BF       F11179   1.802   0.481   3.413
  836BF       F11180   1.882   0.516   3.209
  837BF       B11181   1.404   3.396   3.864
  837BF       F11182   1.466   3.329   3.968
  837BF       F11183   1.446   3.530   3.860
  837BF       F11184   1.430   3.339   3.741
  837BF       F11185   1.267   3.397   3.889
  838BF       B11186   1.073   4.993   0.192
  838BF       F11187   0.989   5.029   0.088
  838BF       F11188   1.018   4.889   0.265
  838BF       F11189   1.194   4.947   0.141
  838BF       F11190   1.097   0.059   0.274
  839BF       B11191   4.485   0.265   1.098
  839BF       F11192   4.366   0.273   1.167
  839BF       F11193   4.458   0.226   0.967
  839BF       F11194   4.551   0.387   1.096
  839BF       F11195   4.566   0.168   1.157
  840BF       B11196   0.239   1.880   4.479
  840BF       F11197   0.189   1.778   4.559
  840BF       F11198   0.373   1.900   4.510
  840BF       F11199   0.230   1.839   4.347
  840BF       F11200   0.167   1.996   4.502
  841BF       B11201   4.052   0.705   0.628
  841BF       F11202   4.186   0.716   0.593
  841BF       F11203   3.988   0.622   0.536
  841BF       F11204   4.040   0.650   0.755
  841BF       F11205   3.988   0.829   0.626
  842BF       B11206   1.340   0.411   4.097
  842BF       F11207   1.249   0.499   4.040
  842BF       F11208   1.471   0.452   4.071
  842BF       F11209   1.320   0.410   4.233
  842BF       F11210   1.317   0.283   4.047
  843BF       B11211   4.616   0.315   1.884
  843BF       F11212   4.497   0.386   1.894
  843BF       F11213   4.621   0.250   1.762
  843BF       F11214   4.723   0.404   1.893
  843BF       F11215   4.626   0.225   1.990
  844BF       B11216   1.022   3.931   2.080
  844BF       F11217   1.137   3.910   2.004
  844BF       F11218   0.996   3.818   2.155
  844BF       F11219   1.040   4.038   2.165
  844BF       F11220   0.918   3.953   1.990
  845BF       B11221   1.237   1.001   3.353
  845BF       F11222   1.114   0.940   3.364
  845BF       F11223   1.317   0.924   3.272
  845BF       F11224   1.221   1.129   3.299
  845BF       F11225   1.297   1.014   3.477
  846BF       B11226   4.913   3.090   1.744
  846BF       F11227   4.907   2.954   1.713
  846BF       F11228   5.042   3.140   1.721
  846BF       F11229   4.823   3.156   1.660
  846BF       F11230   4.874   3.111   1.875
  847BF       B11231   1.435   2.815   2.488
  847BF       F11232   1.331   2.887   2.428
  847BF       F11233   1.462   2.700   2.414
  847BF       F11234   1.549   2.895   2.490
  847BF       F11235   1.401   2.781   2.618
  848BF       B11236   3.233   1.407   0.210
  848BF       F11237   3.252   1.278   0.258
  848BF       F11238   3.301   1.494   0.293
  848BF       F11239   3.287   1.414   0.082
  848BF       F11240   3.098   1.435   0.210
  849BF       B11241   0.120   3.796   3.415
  849BF       F11242   0.087   3.669   3.462
  849BF       F11243   0.054   3.820   3.295
  849BF       F11244   0.077   3.892   3.507
  849BF       F11245   0.257   3.811   3.397
  850BF       B11246   1.361   2.003   1.480
  850BF       F11247   1.284   2.017   1.596
  850BF       F11248   1.294   1.924   1.387
  850BF       F11249   1.380   2.129   1.427
  850BF       F11250   1.484   1.951   1.512
  851BF       B11251   3.758   0.486   1.312
  851BF       F11252   3.852   0.417   1.236
  851BF       F11253   3.639   0.488   1.240
  851BF       F11254   3.740   0.418   1.431
  851BF       F11255   3.802   0.616   1.336
  852BF       B11256   0.255   3.039   3.961
  852BF       F11257   0.189   2.940   4.032
  852BF       F11258   0.363   2.985   3.893
  852BF       F11259   0.170   3.100   3.870
  852BF       F11260   0.304   3.136   4.049
  853BF       B11261   1.634   2.220   3.704
  853BF       F11262   1.600   2.159   3.585
  853BF       F11263   1.581   2.348   3.705
  853BF       F11264   1.582   2.147   3.811
  853BF       F11265   1.772   2.223   3.716
  854BF       B11266   4.155   0.230   3.018
  854BF       F11267   4.279   0.171   3.026
  854BF       F11268   4.089   0.217   3.138
  854BF       F11269   4.168   0.365   2.990
  854BF       F11270   4.084   0.167   2.915
  855BF       B11271   1.084   4.272   0.588
  855BF       F11272   1.093   4.145   0.537
  855BF       F11273   1.164   4.356   0.512
  855BF       F11274   0.952   4.316   0.582
  855BF       F11275   1.126   4.267   0.721
  856BF       B11276   4.947   1.021   3.408
  856BF       F11277   4.958   1.007   3.546
  856BF       F11278   4.824   1.072   3.372
  856BF       F11279   5.046   1.108   3.364
  856BF       F11280   4.962   0.897   3.346
  857BF       B11281   0.944   0.254   1.539
  857BF       F11282   0.986   0.387   1.530
  857BF       F11283   0.926   0.221   1.672
  857BF       F11284   0.826   0.235   1.470
  857BF       F11285   1.045   0.174   1.488
  858BF       B11286   4.803   0.999   4.343
  858BF       F11287   4.879   1.018   4.458
  858BF       F11288   4.701   1.094   4.339
  858BF       F11289   4.882   1.014   4.230
  858BF       F11290   4.744   0.873   4.347
  859BF       B11291   0.524   3.352   3.285
  859BF       F11292   0.515   3.220   3.327
  859BF       F11293   0.403   3.416   3.301
  859BF       F11294   0.623   3.416   3.360
  859BF       F11295   0.564   3.350   3.152
  860BF       B11296   3.152   1.352   3.394
  860BF       F11297   3.025   1.388   3.354
  860BF       F11298   3.243   1.453   3.370
  860BF       F11299   3.154   1.320   3.529
  860BF       F11300   3.189   1.239   3.322
  861BF       B11301   0.721   3.457   2.884
  861BF       F11302   0.629   3.354   2.881
  861BF       F11303   0.850   3.405   2.894
  861BF       F11304   0.711   3.523   2.763
  861BF       F11305   0.699   3.547   2.987
  862BF       B11306   0.425   3.234   0.433
  862BF       F11307   0.389   3.368   0.437
  862BF       F11308   0.438   3.193   0.301
  862BF       F11309   0.546   3.215   0.500
  862BF       F11310   0.327   3.156   0.494
  863BF       B11311   1.678   0.182   1.972
  863BF       F11312   1.709   0.303   1.911
  863BF       F11313   1.717   0.185   2.105
  863BF       F11314   1.540   0.163   1.971
  863BF       F11315   1.738   0.079   1.900
  864BF       B11316   2.783   1.458   1.615
  864BF       F11317   2.740   1.361   1.524
  864BF       F11318   2.840   1.566   1.549
  864BF       F11319   2.677   1.502   1.692
  864BF       F11320   2.876   1.406   1.703
  865BF       B11321   1.179   2.482   4.242
  865BF       F11322   1.075   2.393   4.272
  865BF       F11323   1.174   2.591   4.328
  865BF       F11324   1.302   2.419   4.255
  865BF       F11325   1.164   2.525   4.111
  866BF       B11326   0.888   4.029   4.619
  866BF       F11327   0.904   4.161   4.659
  866BF       F11328   0.915   3.942   4.723
  866BF       F11329   0.761   4.007   4.570
  866BF       F11330   0.980   4.008   4.518
  867BF       B11331   2.482   0.729   3.811
  867BF       F11332   2.406   0.787   3.910
  867BF       F11333   2.432   0.760   3.686
  867BF       F11334   2.611   0.780   3.820
  867BF       F11335   2.481   0.591   3.828
  868BF       B11336   2.196   3.331   0.950
  868BF       F11337   2.148   3.252   1.053
  868BF       F11338   2.179   3.465   0.984
  868BF       F11339   2.331   3.303   0.934
  868BF       F11340   2.128   3.300   0.834
  869BF       B11341   0.975   3.806   3.253
  869BF       F11342   1.068   3.883   3.182
  869BF       F11343   0.879   3.755   3.167
  869BF       F11344   1.044   3.700   3.312
  869BF       F11345   0.915   3.883   3.351
  870BF       B11346   4.728   2.283   2.851
  870BF       F11347   4.866   2.274   2.842
  870BF       F11348   4.684   2.409   2.817
  870BF       F11349   4.673   2.196   2.758
  870BF       F11350   4.683   2.247   2.977
  871BF       B11351   2.551   1.360   2.538
  871BF       F11352   2.574   1.229   2.575
  871BF       F11353   2.419   1.395   2.559
  871BF       F11354   2.631   1.444   2.614
  871BF       F11355   2.587   1.378   2.405
  872BF       B11356   4.036   2.669   2.151
  872BF       F11357   4.020   2.718   2.278
  872BF       F11358   3.920   2.693   2.078
  872BF       F11359   4.143   2.731   2.090
  872BF       F11360   4.054   2.530   2.155
  873BF       B11361   0.008   1.956   4.136
  873BF       F11362   0.102   2.051   4.176
  873BF       F11363   4.975   2.006   4.033
  873BF       F11364   0.071   1.839   4.093
  873BF       F11365   4.969   1.925   4.243
  874BF       B11366   4.735   4.858   3.324
  874BF       F11367   4.733   4.941   3.214
  874BF       F11368   4.704   4.729   3.284
  874BF       F11369   4.860   4.860   3.386
  874BF       F11370   4.639   4.902   3.415
  875BF       B11371   1.985   2.065   3.459
  875BF       F11372   2.091   2.007   3.391
  875BF       F11373   2.033   2.177   3.525
  875BF       F11374   1.890   2.101   3.365
  875BF       F11375   1.933   1.975   3.550
  876BF       B11376   4.587   3.368   1.429
  876BF       F11377   4.491   3.468   1.443
  876BF       F11378   4.713   3.419   1.457
  876BF       F11379   4.557   3.261   1.513
  876BF       F11380   4.584   3.322   1.298
  877BF       B11381   2.668   2.805   4.609
  877BF       F11382   2.733   2.884   4.515
  877BF       F11383   2.542   2.855   4.641
  877BF       F11384   2.660   2.676   4.561
  877BF       F11385   2.743   2.797   4.725
  878BF       B11386   3.473   3.450   1.240
  878BF       F11387   3.585   3.525   1.211
  878BF       F11388   3.459   3.439   1.378
  878BF       F11389   3.359   3.515   1.194
  878BF       F11390   3.485   3.325   1.180
  879BF       B11391   3.867   0.474   3.317
  879BF       F11392   3.976   0.557   3.300
  879BF       F11393   3.751   0.544   3.283
  879BF       F11394   3.881   0.365   3.234
  879BF       F11395   3.859   0.427   3.447
  880BF       B11396   4.820   1.340   4.743
  880BF       F11397   4.911   1.438   4.705
  880BF       F11398   4.691   1.383   4.712
  880BF       F11399   4.844   1.221   4.674
  880BF       F11400   4.829   1.318   4.880
  881BF       B11401   0.181   4.032   4.177
  881BF       F11402   0.213   3.946   4.073
  881BF       F11403   0.075   3.981   4.251
  881BF       F11404   0.292   4.049   4.260
  881BF       F11405   0.139   4.155   4.126
  882BF       B11406   3.527   4.663   0.877
  882BF       F11407   3.535   4.532   0.924
  882BF       F11408   3.607   4.678   0.765
  882BF       F11409   3.395   4.688   0.842
  882BF       F11410   3.567   4.751   0.976
  883BF       B11411   4.206   4.823   1.788
  883BF       F11412   4.205   4.915   1.684
  883BF       F11413   4.324   4.749   1.785
  883BF       F11414   4.194   4.890   1.909
  883BF       F11415   4.097   4.736   1.774
  884BF       B11416   1.506   2.001   2.495
  884BF       F11417   1.563   2.096   2.578
  884BF       F11418   1.525   2.039   2.363
  884BF       F11419   1.567   1.878   2.513
  884BF       F11420   1.371   1.994   2.527
  885BF       B11421   1.520   2.960   4.237
  885BF       F11422   1.573   2.917   4.116
  885BF       F11423   1.430   3.065   4.216
  885BF       F11424   1.453   2.855   4.298
  885BF       F11425   1.621   3.004   4.323
  886BF       B11426   2.974   0.848   2.028
  886BF       F11427   2.850   0.811   1.978
  886BF       F11428   3.054   0.873   1.918
  886BF       F11429   2.967   0.961   2.108
  886BF       F11430   3.029   0.743   2.101
  887BF       B11431   2.485   2.274   0.571
  887BF       F11432   2.620   2.305   0.557
  887BF       F11433   2.421   2.383   0.629
  887BF       F11434   2.429   2.244   0.448
  887BF       F11435   2.473   2.165   0.656
  888BF       B11436   0.503   4.145   4.889
  888BF       F11437   0.584   4.085   4.984
  888BF       F11438   0.462   4.055   4.793
  888BF       F11439   0.393   4.202   4.953
  888BF       F11440   0.575   4.247   4.827
  889BF       B11441   3.474   3.138   1.552
  889BF       F11442   3.396   3.244   1.599
  889BF       F11443   3.433   3.021   1.613
  889BF       F11444   3.459   3.126   1.415
  889BF       F11445   3.607   3.162   1.584
  890BF       B11446   0.249   2.224   2.891
  890BF       F11447   0.232   2.166   3.017
  890BF       F11448   0.136   2.292   2.851
  890BF       F11449   0.357   2.311   2.898
  890BF       F11450   0.280   2.126   2.797
  891BF       B11451   0.584   4.535   1.926
  891BF       F11452   0.714   4.581   1.906
  891BF       F11453   0.495   4.641   1.917
  891BF       F11454   0.556   4.437   1.832
  891BF       F11455   0.574   4.481   2.053
  892BF       B11456   1.037   1.623   0.441
  892BF       F11457   0.990   1.709   0.540
  892BF       F11458   0.955   1.632   0.329
  892BF       F11459   1.169   1.648   0.408
  892BF       F11460   1.026   1.493   0.487
  893BF       B11461   2.898   1.308   0.796
  893BF       F11462   3.012   1.385   0.805
  893BF       F11463   2.790   1.372   0.854
  893BF       F11464   2.874   1.270   0.665
  893BF       F11465   2.922   1.190   0.864
  894BF       B11466   0.693   1.541   3.764
  894BF       F11467   0.557   1.529   3.740
  894BF       F11468   0.754   1.614   3.663
  894BF       F11469   0.716   1.605   3.884
  894BF       F11470   0.749   1.414   3.771
  895BF       B11471   4.405   4.811   2.376
  895BF       F11472   4.311   4.886   2.307
  895BF       F11473   4.366   4.807   2.510
  895BF       F11474   4.412   4.683   2.326
  895BF       F11475   4.531   4.869   2.365
  896BF       B11476   3.182   0.411   1.003
  896BF       F11477   3.210   0.439   0.870
  896BF       F11478   3.121   0.286   1.009
  896BF       F11479   3.295   0.408   1.081
  896BF       F11480   3.091   0.506   1.052
  897BF       B11481   1.586   1.573   0.936
  897BF       F11482   1.684   1.657   0.885
  897BF       F11483   1.501   1.650   1.014
  897BF       F11484   1.513   1.513   0.834
  897BF       F11485   1.641   1.475   1.019
  898BF       B11486   0.793   1.054   2.509
  898BF       F11487   0.699   1.083   2.411
  898BF       F11488   0.728   1.033   2.630
  898BF       F11489   0.863   0.939   2.474
  898BF       F11490   0.883   1.159   2.519
  899BF       B11491   1.040   4.878   2.041
  899BF       F11492   1.079   4.795   2.146
  899BF       F11493   0.977   4.988   2.097
  899BF       F11494   1.152   4.917   1.969
  899BF       F11495   0.951   4.815   1.955
  900BF       B11496   3.812   2.316   1.181
  900BF       F11497   3.887   2.292   1.297
  900BF       F11498   3.689   2.252   1.196
  900BF       F11499   3.788   2.451   1.168
  900BF       F11500   3.880   2.269   1.070
  901BF       B11501   1.859   2.756   1.734
  901BF       F11502   1.866   2.862   1.644
  901BF       F11503   1.833   2.639   1.662
  901BF       F11504   1.979   2.742   1.801
  901BF       F11505   1.757   2.777   1.825
  902BF       B11506   3.028   0.025   2.330
  902BF       F11507   2.960   0.107   2.417
  902BF       F11508   3.146   0.090   2.297
  902BF       F11509   3.063   4.952   2.395
  902BF       F11510   2.952   5.042   2.217
  903BF       B11511   4.164   1.142   2.509
  903BF       F11512   4.089   1.255   2.542
  903BF       F11513   4.082   1.043   2.460
  903BF       F11514   4.255   1.178   2.413
  903BF       F11515   4.235   1.099   2.619
  904BF       B11516   3.666   1.637   4.757
  904BF       F11517   3.800   1.649   4.792
  904BF       F11518   3.610   1.763   4.746
  904BF       F11519   3.659   1.571   4.635
  904BF       F11520   3.595   1.561   4.851
  905BF       B11521   0.444   0.134   4.794
  905BF       F11522   0.430   0.004   4.841
  905BF       F11523   0.344   0.163   4.702
  905BF       F11524   0.437   0.224   4.900
  905BF       F11525   0.568   0.148   4.731
  906BF       B11526   1.623   4.598   0.552
  906BF       F11527   1.697   4.482   0.534
  906BF       F11528   1.496   4.583   0.502
  906BF       F11529   1.618   4.627   0.689
  906BF       F11530   1.687   4.701   0.484
  907BF       B11531   2.641   4.125   1.588
  907BF       F11532   2.623   4.250   1.532
  907BF       F11533   2.776   4.096   1.603
  907BF       F11534   2.582   4.120   1.713
  907BF       F11535   2.583   4.032   1.503
  908BF       B11536   4.847   3.433   3.948
  908BF       F11537   4.931   3.434   3.837
  908BF       F11538   4.729   3.366   3.914
  908BF       F11539   4.907   3.373   4.056
  908BF       F11540   4.810   3.563   3.982
  909BF       B11541   3.159   2.671   4.855
  909BF       F11542   3.182   2.589   4.746
  909BF       F11543   3.080   2.780   4.819
  909BF       F11544   3.091   2.598   4.951
  909BF       F11545   3.282   2.719   4.901
  910BF       B11546   4.630   4.501   4.401
  910BF       F11547   4.749   4.573   4.401
  910BF       F11548   4.657   4.365   4.411
  910BF       F11549   4.549   4.540   4.508
  910BF       F11550   4.561   4.522   4.282
  911BF       B11551   0.756   2.219   2.481
  911BF       F11552   0.818   2.230   2.604
  911BF       F11553   0.838   2.148   2.395
  911BF       F11554   0.633   2.156   2.493
  911BF       F11555   0.735   2.347   2.431
  912BF       B11556   1.839   2.134   0.505
  912BF       F11557   1.894   2.260   0.504
  912BF       F11558   1.906   2.052   0.416
  912BF       F11559   1.848   2.082   0.634
  912BF       F11560   1.707   2.149   0.467
  913BF       B11561   1.850   3.409   0.754
  913BF       F11562   1.952   3.445   0.666
  913BF       F11563   1.847   3.272   0.773
  913BF       F11564   1.864   3.476   0.875
  913BF       F11565   1.730   3.443   0.696
  914BF       B11566   4.539   3.502   1.899
  914BF       F11567   4.614   3.530   2.012
  914BF       F11568   4.570   3.379   1.844
  914BF       F11569   4.405   3.504   1.939
  914BF       F11570   4.557   3.601   1.804
  915BF       B11571   1.622   3.813   4.827
  915BF       F11572   1.540   3.887   4.743
  915BF       F11573   1.717   3.897   4.885
  915BF       F11574   1.551   3.751   4.929
  915BF       F11575   1.692   3.719   4.753
  916BF       B11576   1.395   0.846   4.068
  916BF       F11577   1.304   0.825   3.968
  916BF       F11578   1.398   0.980   4.104
  916BF       F11579   1.355   0.772   4.178
  916BF       F11580   1.521   0.805   4.028
  917BF       B11581   3.496   3.063   0.117
  917BF       F11582   3.534   3.091   0.248
  917BF       F11583   3.374   2.999   0.119
  917BF       F11584   3.489   3.183   0.048
  917BF       F11585   3.594   2.982   0.059
  918BF       B11586   3.435   1.252   2.328
  918BF       F11587   3.498   1.178   2.230
  918BF       F11588   3.363   1.358   2.274
  918BF       F11589   3.349   1.169   2.399
  918BF       F11590   3.534   1.302   2.412
  919BF       B11591   1.546   1.042   3.727
  919BF       F11592   1.485   0.923   3.693
  919BF       F11593   1.674   1.044   3.675
  919BF       F11594   1.477   1.151   3.676
  919BF       F11595   1.558   1.053   3.865
  920BF       B11596   4.776   2.546   2.278
  920BF       F11597   4.729   2.438   2.353
  920BF       F11598   4.732   2.527   2.146
  920BF       F11599   4.717   2.662   2.324
  920BF       F11600   4.913   2.551   2.285
  921BF       B11601   4.164   4.344   4.247
  921BF       F11602   4.292   4.290   4.244
  921BF       F11603   4.075   4.251   4.301
  921BF       F11604   4.163   4.459   4.322
  921BF       F11605   4.121   4.372   4.117
  922BF       B11606   3.022   2.623   3.857
  922BF       F11607   2.969   2.594   3.982
  922BF       F11608   3.065   2.507   3.794
  922BF       F11609   2.927   2.686   3.779
  922BF       F11610   3.131   2.709   3.872
  923BF       B11611   0.404   2.875   3.383
  923BF       F11612   0.459   2.931   3.269
  923BF       F11613   0.295   2.949   3.425
  923BF       F11614   0.364   2.744   3.353
  923BF       F11615   0.503   2.872   3.480
  924BF       B11616   3.325   0.680   0.575
  924BF       F11617   3.416   0.621   0.661
  924BF       F11618   3.203   0.699   0.641
  924BF       F11619   3.374   0.803   0.529
  924BF       F11620   3.306   0.596   0.464
  925BF       B11621   0.704   0.121   0.851
  925BF       F11622   0.705   0.035   0.960
  925BF       F11623   0.770   0.063   0.745
  925BF       F11624   0.573   0.151   0.820
  925BF       F11625   0.771   0.237   0.889
  926BF       B11626   3.508   3.913   2.544
  926BF       F11627   3.380   3.906   2.493
  926BF       F11628   3.528   3.792   2.611
  926BF       F11629   3.601   3.928   2.442
  926BF       F11630   3.514   4.021   2.630
  927BF       B11631   0.415   4.715   4.493
  927BF       F11632   0.323   4.642   4.420
  927BF       F11633   0.376   4.848   4.498
  927BF       F11634   0.421   4.662   4.621
  927BF       F11635   0.541   4.709   4.435
  928BF       B11636   3.187   2.015   4.047
  928BF       F11637   3.162   1.898   3.976
  928BF       F11638   3.096   2.111   4.007
  928BF       F11639   3.177   1.999   4.184
  928BF       F11640   3.316   2.055   4.017
  929BF       B11641   1.294   4.570   1.895
  929BF       F11642   1.184   4.615   1.825
  929BF       F11643   1.392   4.668   1.906
  929BF       F11644   1.257   4.539   2.025
  929BF       F11645   1.347   4.455   1.835
  930BF       B11646   1.990   4.699   0.101
  930BF       F11647   1.856   4.692   0.067
  930BF       F11648   2.055   4.590   0.045
  930BF       F11649   2.047   4.816   0.052
  930BF       F11650   2.007   4.695   0.240
  931BF       B11651   0.271   0.778   2.823
  931BF       F11652   0.306   0.822   2.951
  931BF       F11653   0.142   0.824   2.791
  931BF       F11654   0.360   0.827   2.728
  931BF       F11655   0.278   0.641   2.821
  932BF       B11656   1.429   0.339   1.329
  932BF       F11657   1.450   0.443   1.240
  932BF       F11658   1.349   0.388   1.432
  932BF       F11659   1.364   0.235   1.265
  932BF       F11660   1.551   0.297   1.379
  933BF       B11661   2.500   2.816   2.828
  933BF       F11662   2.513   2.693   2.891
  933BF       F11663   2.584   2.817   2.716
  933BF       F11664   2.370   2.831   2.784
  933BF       F11665   2.533   2.921   2.911
  934BF       B11666   1.594   1.669   4.617
  934BF       F11667   1.633   1.556   4.689
  934BF       F11668   1.701   1.714   4.540
  934BF       F11669   1.484   1.641   4.538
  934BF       F11670   1.561   1.768   4.709
  935BF       B11671   0.186   5.008   3.881
  935BF       F11672   0.224   0.007   4.007
  935BF       F11673   0.154   0.074   3.803
  935BF       F11674   0.292   4.939   3.824
  935BF       F11675   0.076   4.924   3.892
  936BF       B11676   3.907   0.486   3.906
  936BF       F11677   3.994   0.589   3.881
  936BF       F11678   3.887   0.410   3.791
  936BF       F11679   3.956   0.407   4.009
  936BF       F11680   3.785   0.539   3.946
  937BF       B11681   2.035   0.205   0.156
  937BF       F11682   2.011   0.340   0.172
  937BF       F11683   1.942   0.154   0.067
  937BF       F11684   2.164   0.187   0.110
  937BF       F11685   2.025   0.141   0.279
  938BF       B11686   3.025   2.329   1.047
  938BF       F11687   2.887   2.317   1.054
  938BF       F11688   3.081   2.206   1.021
  938BF       F11689   3.054   2.419   0.945
  938BF       F11690   3.072   2.376   1.169
  939BF       B11691   2.922   3.214   2.225
  939BF       F11692   2.966   3.201   2.095
  939BF       F11693   3.024   3.180   2.313
  939BF       F11694   2.888   3.347   2.244
  939BF       F11695   2.810   3.134   2.246
  940BF       B11696   0.277   0.559   4.520
  940BF       F11697   0.264   0.431   4.570
  940BF       F11698   0.269   0.560   4.382
  940BF       F11699   0.179   0.640   4.574
  940BF       F11700   0.403   0.609   4.553
  941BF       B11701   3.202   4.187   2.613
  941BF       F11702   3.201   4.088   2.518
  941BF       F11703   3.310   4.273   2.594
  941BF       F11704   3.086   4.260   2.595
  941BF       F11705   3.203   4.130   2.740
  942BF       B11706   1.189   4.508   1.440
  942BF       F11707   1.189   4.384   1.504
  942BF       F11708   1.206   4.611   1.532
  942BF       F11709   1.294   4.512   1.349
  942BF       F11710   1.071   4.525   1.371
  943BF       B11711   2.449   2.558   0.363
  943BF       F11712   2.329   2.492   0.383
  943BF       F11713   2.508   2.600   0.482
  943BF       F11714   2.538   2.479   0.292
  943BF       F11715   2.418   2.669   0.286
  944BF       B11716   1.615   1.108   0.764
  944BF       F11717   1.485   1.115   0.715
  944BF       F11718   1.695   1.202   0.703
  944BF       F11719   1.610   1.124   0.902
  944BF       F11720   1.667   0.982   0.734
  945BF       B11721   4.897   0.765   3.880
  945BF       F11722   4.833   0.849   3.969
  945BF       F11723   5.033   0.762   3.907
  945BF       F11724   4.844   0.637   3.887
  945BF       F11725   4.879   0.813   3.751
  946BF       B11726   0.467   1.159   4.452
  946BF       F11727   0.542   1.275   4.462
  946BF       F11728   0.508   1.068   4.550
  946BF       F11729   0.333   1.190   4.467
  946BF       F11730   0.487   1.099   4.328
  947BF       B11731   1.042   2.631   1.615
  947BF       F11732   0.998   2.703   1.503
  947BF       F11733   0.964   2.663   1.724
  947BF       F11734   1.031   2.496   1.590
  947BF       F11735   1.176   2.657   1.638
  948BF       B11736   3.409   0.847   3.468
  948BF       F11737   3.318   0.898   3.375
  948BF       F11738   3.341   0.773   3.563
  948BF       F11739   3.500   0.768   3.399
  948BF       F11740   3.477   0.950   3.530
  949BF       B11741   4.465   3.153   2.134
  949BF       F11742   4.402   3.274   2.115
  949BF       F11743   4.375   3.058   2.087
  949BF       F11744   4.582   3.150   2.061
  949BF       F11745   4.487   3.130   2.268
  950BF       B11746   3.258   2.333   1.502
  950BF       F11747   3.285   2.452   1.436
  950BF       F11748   3.373   2.253   1.509
  950BF       F11749   3.221   2.365   1.632
  950BF       F11750   3.155   2.263   1.440
  951BF       B11751   0.183   4.422   0.429
  951BF       F11752   0.218   4.485   0.548
  951BF       F11753   0.053   4.459   0.394
  951BF       F11754   0.273   4.458   0.330
  951BF       F11755   0.186   4.284   0.448
  952BF       B11756   2.122   2.327   0.732
  952BF       F11757   2.001   2.278   0.779
  952BF       F11758   2.223   2.294   0.822
  952BF       F11759   2.149   2.282   0.605
  952BF       F11760   2.110   2.465   0.727
  953BF       B11761   4.834   4.048   0.579
  953BF       F11762   4.914   4.161   0.589
  953BF       F11763   4.880   3.968   0.475
  953BF       F11764   4.837   3.978   0.699
  953BF       F11765   4.705   4.091   0.553
  954BF       B11766   2.737   3.801   3.012
  954BF       F11767   2.702   3.873   3.127
  954BF       F11768   2.790   3.679   3.048
  954BF       F11769   2.623   3.778   2.936
  954BF       F11770   2.830   3.875   2.941
  955BF       B11771   1.980   1.594   2.040
  955BF       F11772   1.926   1.471   2.075
  955BF       F11773   1.938   1.690   2.131
  955BF       F11774   2.119   1.588   2.037
  955BF       F11775   1.935   1.631   1.915
  956BF       B11776   4.449   3.911   1.019
  956BF       F11777   4.513   3.957   1.134
  956BF       F11778   4.342   3.832   1.054
  956BF       F11779   4.400   4.019   0.946
  956BF       F11780   4.537   3.838   0.941
  957BF       B11781   3.885   2.719   2.622
  957BF       F11782   3.891   2.833   2.544
  957BF       F11783   4.000   2.699   2.694
  957BF       F11784   3.772   2.719   2.705
  957BF       F11785   3.873   2.609   2.540
  958BF       B11786   3.180   0.334   1.586
  958BF       F11787   3.206   0.467   1.561
  958BF       F11788   3.208   0.254   1.477
  958BF       F11789   3.259   0.287   1.688
  958BF       F11790   3.043   0.326   1.618
  959BF       B11791   0.014   0.501   2.696
  959BF       F11792   4.968   0.408   2.651
  959BF       F11793   0.121   0.435   2.754
  959BF       F11794   0.055   0.574   2.584
  959BF       F11795   4.999   0.590   2.785
  960BF       B11796   3.897   2.055   0.345
  960BF       F11797   3.867   2.061   0.481
  960BF       F11798   3.783   2.079   0.269
  960BF       F11799   3.994   2.151   0.317
  960BF       F11800   3.951   1.931   0.317
  961BF       B11801   4.484   1.114   2.085
  961BF       F11802   4.621   1.134   2.084
  961BF       F11803   4.423   1.223   2.024
  961BF       F11804   4.452   0.998   2.017
  961BF       F11805   4.446   1.110   2.217
  962BF       B11806   3.886   3.682   4.486
  962BF       F11807   3.803   3.571   4.498
  962BF       F11808   3.821   3.777   4.406
  962BF       F11809   3.911   3.738   4.611
  962BF       F11810   4.007   3.647   4.428
  963BF       B11811   2.604   4.464   4.976
  963BF       F11812   2.709   4.520   0.002
  963BF       F11813   2.612   4.507   4.844
  963BF       F11814   2.613   4.326   4.985
  963BF       F11815   2.484   4.508   5.030
  964BF       B11816   4.669   4.635   2.738
  964BF       F11817   4.616   4.736   2.658
  964BF       F11818   4.632   4.512   2.684
  964BF       F11819   4.807   4.644   2.741
  964BF       F11820   4.614   4.646   2.865
  965BF       B11821   3.543   2.712   1.293
  965BF       F11822   3.637   2.813   1.307
  965BF       F11823   3.540   2.677   1.160
  965BF       F11824   3.573   2.599   1.368
  965BF       F11825   3.420   2.760   1.336
  966BF       B11826   0.653   4.885   0.417
  966BF       F11827   0.687   4.895   0.282
  966BF       F11828   0.533   4.815   0.430
  966BF       F11829   0.754   4.816   0.484
  966BF       F11830   0.639   5.010   0.474
  967BF       B11831   1.094   0.279   0.847
  967BF       F11832   1.039   0.158   0.880
  967BF       F11833   1.096   0.293   0.709
  967BF       F11834   1.024   0.386   0.904
  967BF       F11835   1.225   0.283   0.894
  968BF       B11836   4.543   1.337   1.201
  968BF       F11837   4.645   1.251   1.234
  968BF       F11838   4.436   1.272   1.141
  968BF       F11839   4.500   1.405   1.315
  968BF       F11840   4.595   1.433   1.116
  969BF       B11841   1.990   1.765   2.475
  969BF       F11842   2.059   1.652   2.436
  969BF       F11843   2.076   1.874   2.467
  969BF       F11844   1.882   1.790   2.392
  969BF       F11845   1.947   1.753   2.607
  970BF       B11846   4.038   1.760   0.764
  970BF       F11847   4.104   1.767   0.887
  970BF       F11848   3.960   1.873   0.749
  970BF       F11849   4.126   1.751   0.658
  970BF       F11850   3.955   1.647   0.763
  971BF       B11851   3.109   4.497   1.478
  971BF       F11852   2.974   4.510   1.502
  971BF       F11853   3.126   4.384   1.399
  971BF       F11854   3.153   4.610   1.411
  971BF       F11855   3.177   4.479   1.598
  972BF       B11856   1.941   0.173   1.197
  972BF       F11857   1.904   0.266   1.292
  972BF       F11858   1.872   0.055   1.216
  972BF       F11859   1.915   0.219   1.069
  972BF       F11860   2.078   0.152   1.212
  973BF       B11861   1.310   3.594   4.529
  973BF       F11862   1.404   3.694   4.552
  973BF       F11863   1.189   3.652   4.492
  973BF       F11864   1.351   3.518   4.421
  973BF       F11865   1.298   3.518   4.643
  974BF       B11866   3.916   3.550   0.429
  974BF       F11867   3.905   3.413   0.450
  974BF       F11868   3.885   3.580   0.297
  974BF       F11869   3.829   3.614   0.517
  974BF       F11870   4.046   3.590   0.452
  975BF       B11871   2.962   0.011   0.294
  975BF       F11872   2.945   0.104   0.397
  975BF       F11873   2.841   0.002   0.225
  975BF       F11874   3.063   0.052   0.209
  975BF       F11875   2.993   4.931   0.348
  976BF       B11876   0.414   4.335   3.720
  976BF       F11877   0.538   4.398   3.733
  976BF       F11878   0.313   4.426   3.750
  976BF       F11879   0.399   4.291   3.588
  976BF       F11880   0.411   4.226   3.805
  977BF       B11881   3.984   1.539   1.875
  977BF       F11882   4.036   1.412   1.894
  977BF       F11883   3.867   1.529   1.802
  977BF       F11884   3.953   1.599   1.998
  977BF       F11885   4.075   1.618   1.807
  978BF       B11886   4.614   1.855   0.966
  978BF       F11887   4.550   1.964   1.023
  978BF       F11888   4.537   1.741   0.984
  978BF       F11889   4.637   1.882   0.832
  978BF       F11890   4.736   1.834   1.031
  979BF       B11891   4.115   2.764   4.152
  979BF       F11892   4.253   2.778   4.158
  979BF       F11893   4.055   2.875   4.094
  979BF       F11894   4.085   2.654   4.072
  979BF       F11895   4.064   2.743   4.279
  980BF       B11896   0.565   4.432   1.097
  980BF       F11897   0.494   4.469   0.984
  980BF       F11898   0.485   4.363   1.187
  980BF       F11899   0.671   4.349   1.061
  980BF       F11900   0.620   4.543   1.161
  981BF       B11901   4.111   0.398   2.481
  981BF       F11902   4.028   0.339   2.386
  981BF       F11903   4.224   0.321   2.499
  981BF       F11904   4.152   0.524   2.441
  981BF       F11905   4.040   0.408   2.600
  982BF       B11906   2.329   3.574   2.370
  982BF       F11907   2.404   3.585   2.486
  982BF       F11908   2.393   3.630   2.260
  982BF       F11909   2.309   3.440   2.339
  982BF       F11910   2.206   3.634   2.393
  983BF       B11911   2.206   2.149   4.919
  983BF       F11912   2.079   2.117   4.965
  983BF       F11913   2.287   2.199   5.020
  983BF       F11914   2.268   2.038   4.862
  983BF       F11915   2.189   2.248   4.824
  984BF       B11916   1.099   4.240   2.541
  984BF       F11917   1.184   4.320   2.619
  984BF       F11918   0.968   4.259   2.580
  984BF       F11919   1.116   4.279   2.408
  984BF       F11920   1.139   4.108   2.558
  985BF       B11921   4.124   3.842   3.140
  985BF       F11922   4.136   3.754   3.035
  985BF       F11923   4.174   3.782   3.255
  985BF       F11924   4.194   3.959   3.117
  985BF       F11925   3.989   3.869   3.163
  986BF       B11926   2.607   4.293   4.390
  986BF       F11927   2.520   4.298   4.497
  986BF       F11928   2.659   4.421   4.374
  986BF       F11929   2.712   4.205   4.412
  986BF       F11930   2.538   4.255   4.276
  987BF       B11931   3.614   2.721   0.795
  987BF       F11932   3.511   2.715   0.702
  987BF       F11933   3.579   2.818   0.889
  987BF       F11934   3.629   2.600   0.860
  987BF       F11935   3.731   2.762   0.734
  988BF       B11936   2.853   1.292   2.906
  988BF       F11937   2.934   1.280   3.017
  988BF       F11938   2.909   1.386   2.820
  988BF       F11939   2.844   1.169   2.841
  988BF       F11940   2.726   1.332   2.940
  989BF       B11941   0.423   2.955   2.837
  989BF       F11942   0.524   2.869   2.790
  989BF       F11943   0.314   2.950   2.752
  989BF       F11944   0.385   2.913   2.963
  989BF       F11945   0.480   3.081   2.839
  990BF       B11946   0.854   2.365   3.101
  990BF       F11947   0.806   2.278   3.198
  990BF       F11948   0.936   2.295   3.012
  990BF       F11949   0.749   2.421   3.030
  990BF       F11950   0.926   2.467   3.161
  991BF       B11951   0.935   1.894   3.058
  991BF       F11952   0.848   1.842   3.151
  991BF       F11953   1.029   1.975   3.118
  991BF       F11954   1.002   1.788   2.997
  991BF       F11955   0.865   1.967   2.964
  992BF       B11956   3.570   2.783   1.894
  992BF       F11957   3.448   2.847   1.876
  992BF       F11958   3.570   2.668   1.819
  992BF       F11959   3.677   2.861   1.857
  992BF       F11960   3.585   2.751   2.029
  993BF       B11961   0.756   5.024   4.005
  993BF       F11962   0.781   5.001   4.140
  993BF       F11963   0.621   0.004   3.985
  993BF       F11964   0.830   0.089   3.962
  993BF       F11965   0.790   4.913   3.930
  994BF       B11966   3.520   4.809   2.797
  994BF       F11967   3.631   4.848   2.869
  994BF       F11968   3.424   4.911   2.802
  994BF       F11969   3.558   4.787   2.666
  994BF       F11970   3.464   4.692   2.847
  995BF       B11971   0.430   4.374   4.176
  995BF       F11972   0.515   4.265   4.192
  995BF       F11973   0.497   4.487   4.220
  995BF       F11974   0.401   4.389   4.042
  995BF       F11975   0.312   4.360   4.250
  996BF       B11976   1.477   1.266   4.333
  996BF       F11977   1.568   1.243   4.434
  996BF       F11978   1.424   1.394   4.342
  996BF       F11979   1.538   1.247   4.210
  996BF       F11980   1.373   1.175   4.349
  997BF       B11981   3.076   4.874   0.913
  997BF       F11982   3.127   4.747   0.939
  997BF       F11983   3.175   4.970   0.903
  997BF       F11984   3.001   4.870   0.795
  997BF       F11985   2.989   4.907   1.017
  998BF       B11986   2.106   2.071   1.039
  998BF       F11987   2.239   2.112   1.052
  998BF       F11988   2.090   2.000   0.922
  998BF       F11989   2.074   1.992   1.149
  998BF       F11990   2.024   2.184   1.043
  999BF       B11991   0.258   1.936   0.542
  999BF       F11992   0.222   1.904   0.674
  999BF       F11993   0.223   1.832   0.459
  999BF       F11994   0.195   2.048   0.493
  999BF       F11995   0.396   1.952   0.539
 1000BF       B11996   1.072   1.090   2.152
 1000BF       F11997   1.129   1.054   2.030
 1000BF       F11998   1.037   0.973   2.218
 1000BF       F11999   1.165   1.162   2.225
 1000BF       F12000   0.962   1.170   2.124
   5.04500   5.04500   5.04500
