Neat EMI BF4
12000
    1EMI    C01    1   1.091   1.633   4.569  1.4491 -0.0864 -0.1067
    1EMI    C04    2   1.150   1.834   4.620 -0.2790  0.4241 -0.0535
    1EMI    C03    3   1.020   1.835   4.615 -0.4886  0.4573  0.2559
    1EMI    H07    4   1.092   1.530   4.540 -0.6000  0.2430 -1.5290
    1EMI    H09    5   1.218   1.915   4.634  0.9571 -0.8688  1.7893
    1EMI    H08    6   0.946   1.913   4.619 -0.9133  0.0495  0.6494
    1EMI    C05    7   0.847   1.673   4.559  0.8041  0.0591  0.3510
    1EMI    H0B    8   0.840   1.577   4.509  2.3267  0.0482  0.1064
    1EMI    H0C    9   0.791   1.678   4.652  0.7522 -0.9697  0.3836
    1EMI    H0D   10   0.805   1.743   4.489 -1.1975 -0.4363  0.9951
    1EMI    N00   11   0.983   1.709   4.581  0.0628  0.4659  0.0373
    1EMI    C06   12   1.336   1.674   4.605 -0.5780 -0.5525  0.2071
    1EMI    H0F   13   1.383   1.744   4.673  0.4450 -2.5007  1.6047
    1EMI    C0N   14   1.356   1.552   4.687  1.2067 -0.2009 -0.7415
    1EMI    H0O   15   1.301   1.561   4.780 -0.1684  0.3133 -1.5705
    1EMI    H0P   16   1.330   1.470   4.620 -0.5011 -0.9834  0.7864
    1EMI    H0Q   17   1.460   1.527   4.707  1.1955  0.2288 -0.1260
    1EMI    N02   18   1.195   1.708   4.599 -0.3648 -0.2510  0.0917
    1EMI    H0E   19   1.376   1.678   4.505  0.2589 -1.2591  0.5033
    2EMI    C01   20   4.139   4.385   4.327 -0.5460 -0.5042  0.2344
    2EMI    C04   21   4.018   4.536   4.237 -0.2138  0.2432  1.1383
    2EMI    C03   22   4.061   4.457   4.140 -0.7768 -0.3642 -0.3916
    2EMI    H07   23   4.181   4.319   4.400 -2.2722  0.0229  1.7664
    2EMI    H09   24   3.978   4.634   4.225  2.8941  1.4213 -0.8040
    2EMI    H08   25   4.039   4.468   4.036 -2.2501 -1.3449 -0.2088
    2EMI    C05   26   4.229   4.261   4.126 -0.1565  0.0131  0.6205
    2EMI    H0B   27   4.326   4.263   4.172 -0.1138  1.0293  0.5186
    2EMI    H0C   28   4.186   4.162   4.128 -2.9892  1.1065 -0.6136
    2EMI    H0D   29   4.240   4.293   4.023  0.4851 -1.5579  0.1821
    2EMI    N00   30   4.146   4.363   4.196 -0.6226 -0.2257  0.4244
    2EMI    C06   31   4.043   4.548   4.488  0.6297 -0.1348  0.0443
    2EMI    H0F   32   4.104   4.637   4.494  2.4738 -1.3068 -0.3874
    2EMI    C0N   33   3.895   4.574   4.508 -0.3182  0.1773  1.1381
    2EMI    H0O   34   3.878   4.585   4.614  0.0915 -0.5081  1.2777
    2EMI    H0P   35   3.865   4.658   4.445  0.9017  0.6771  1.1968
    2EMI    H0Q   36   3.834   4.492   4.472 -1.3646  0.3464  2.4581
    2EMI    N02   37   4.067   4.489   4.356  0.3046  0.0774 -0.3122
    2EMI    H0E   38   4.077   4.480   4.564 -0.3000 -0.3442  0.2756
    3EMI    C01   39   5.029   0.814   5.105  0.2334  1.0152  0.0191
    3EMI    C04   40   5.187   0.778   5.257 -0.0226  0.7778 -0.1670
    3EMI    C03   41   5.222   0.718   5.142 -0.3766  0.0556  0.4221
    3EMI    H07   42   4.942   0.852   5.056  0.7399  0.9331 -0.9739
    3EMI    H09   43   5.232   0.773   5.353  0.0687 -2.1191 -0.2867
    3EMI    H08   44   5.305   0.662   5.105  0.4550  1.0014  0.7956
    3EMI    C05   45   5.115   0.675   4.918 -0.2392  0.3857  0.8401
    3EMI    H0B   46   5.172   0.744   4.857  2.4547 -1.3560  1.1949
    3EMI    H0C   47   5.174   0.585   4.905 -0.6091  0.2220  0.2429
    3EMI    H0D   48   5.012   0.675   4.887  0.4411  3.2373 -2.0644
    3EMI    N00   49   5.125   0.743   5.049  0.1439  0.5410  0.1966
    3EMI    C06   50   4.992   0.908   5.336 -0.3518 -0.0663 -0.1587
    3EMI    H0F   51   4.978   0.836   5.416 -0.0594 -2.5809 -2.2538
    3EMI    C0N   52   5.068   1.035   5.363  0.3844 -0.1798 -0.3339
    3EMI    H0O   53   5.034   1.074   5.458  1.5516 -0.7084  0.3245
    3EMI    H0P   54   5.171   1.007   5.380  0.3850 -1.5925 -2.3198
    3EMI    H0Q   55   5.057   1.102   5.278  0.2743  1.0851  0.6521
    3EMI    N02   56   5.061   0.831   5.231  0.5365  0.0283 -0.1283
    3EMI    H0E   57   4.895   0.934   5.297 -0.1048  0.7821 -0.2258
    4EMI    C01   58   4.347   2.554   0.064 -0.2455  0.4612  0.4871
    4EMI    C04   59   4.265   2.353   0.082  0.6833  0.6825  0.3610
    4EMI    C03   60   4.193   2.436   0.155  0.1945 -0.2413 -1.0216
    4EMI    H07   61   4.409   2.635   0.034  0.0378 -0.5265 -1.8818
    4EMI    H09   62   4.252   2.249   0.063  0.1977  0.3926  2.1481
    4EMI    H08   63   4.103   2.414   0.209  0.7169  1.1725  0.4831
    4EMI    C05   64   4.194   2.679   0.203 -0.3062 -0.2990 -0.5849
    4EMI    H0B   65   4.094   2.665   0.240 -0.3633  0.3236 -0.4880
    4EMI    H0C   66   4.250   2.703   0.292  0.6493  0.6722 -1.4145
    4EMI    H0D   67   4.195   2.772   0.149 -0.9159  0.6349  0.9351
    4EMI    N00   68   4.243   2.559   0.140 -0.4775 -0.3065  0.0926
    4EMI    C06   69   4.471   2.377  -0.071  0.1339 -0.2150  0.5776
    4EMI    H0F   70   4.432   2.329  -0.160 -0.7669  1.8412 -0.2175
    4EMI    C0N   71   4.579   2.475  -0.124  0.1505  0.2959 -0.0556
    4EMI    H0O   72   4.535   2.557  -0.181  2.1559  0.9889 -0.6796
    4EMI    H0P   73   4.641   2.508  -0.042 -1.1279 -1.9107  1.8924
    4EMI    H0Q   74   4.645   2.432  -0.199  2.2810  2.3906  0.5116
    4EMI    N02   75   4.364   2.432   0.021 -0.2266 -0.0754  0.6899
    4EMI    H0E   76   4.516   2.298  -0.013 -1.6347 -2.5245 -1.0053
    5EMI    C01   77   4.755   1.289   4.695  0.0958 -0.7613 -0.4313
    5EMI    C04   78   4.746   1.391   4.504  0.4189 -0.0433  0.0992
    5EMI    C03   79   4.863   1.414   4.563  0.1202 -1.2457  0.0339
    5EMI    H07   80   4.717   1.236   4.779  0.4151 -0.1758  0.0849
    5EMI    H09   81   4.707   1.422   4.409 -1.0574  2.4714  1.4338
    5EMI    H08   82   4.938   1.481   4.527  0.4680 -2.2119 -1.0697
    5EMI    C05   83   4.987   1.346   4.767 -0.4616 -0.3154 -0.1941
    5EMI    H0B   84   5.025   1.442   4.799  0.7976 -1.4831  2.0885
    5EMI    H0C   85   4.965   1.296   4.859  0.1866 -0.8616 -0.3271
    5EMI    H0D   86   5.075   1.301   4.723  0.6096  0.9319  0.5752
    5EMI    N00   87   4.871   1.342   4.681 -0.0423 -0.4732  0.5365
    5EMI    C06   88   4.534   1.270   4.567  0.2736  0.4126 -0.4037
    5EMI    H0F   89   4.504   1.171   4.597  0.7519  0.6348  0.8710
    5EMI    C0N   90   4.452   1.365   4.652  0.1923  0.2448  0.3730
    5EMI    H0O   91   4.511   1.456   4.652  1.4445 -0.5576 -0.1352
    5EMI    H0P   92   4.357   1.361   4.600  0.1930  0.2863  0.3694
    5EMI    H0Q   93   4.445   1.321   4.751 -2.5113  1.3287  0.7648
    5EMI    N02   94   4.679   1.303   4.585  0.7538  0.3495  0.2987
    5EMI    H0E   95   4.511   1.267   4.462 -2.8564 -0.4936  0.1814
    6EMI    C01   96   0.791   0.446   1.566  0.2583  0.2115 -1.0131
    6EMI    C04   97   0.800   0.554   1.372 -0.3537 -0.7997 -0.5096
    6EMI    C03   98   0.689   0.596   1.438 -0.7450  0.1197  0.1945
    6EMI    H07   99   0.810   0.380   1.648  0.3325  1.6623  0.1776
    6EMI    H09  100   0.834   0.574   1.273 -0.8063 -0.0188 -0.5147
    6EMI    H08  101   0.622   0.675   1.413  0.4516  1.2479  0.4857
    6EMI    C05  102   0.597   0.554   1.671 -0.2608 -0.4412  0.0433
    6EMI    H0B  103   0.615   0.484   1.751  2.5814 -1.0634 -1.0226
    6EMI    H0C  104   0.616   0.651   1.715 -2.0221  0.2154 -0.5248
    6EMI    H0D  105   0.494   0.553   1.637  0.3686  3.0289 -2.5777
    6EMI    N00  106   0.689   0.532   1.563 -0.3205  0.3518  0.4410
    6EMI    C06  107   0.976   0.375   1.417 -0.1173  0.1386  0.2990
    6EMI    H0F  108   0.995   0.299   1.492 -0.1885 -0.9816 -0.7838
    6EMI    C0N  109   0.965   0.306   1.282  0.5093  0.2419 -0.5230
    6EMI    H0O  110   0.873   0.251   1.267  0.2939  0.6296 -0.6206
    6EMI    H0P  111   0.959   0.392   1.216 -1.6973  1.3193  1.0014
    6EMI    H0Q  112   1.053   0.244   1.263  0.5925  0.3968 -0.6507
    6EMI    N02  113   0.861   0.455   1.455  0.2081  0.1427  0.0497
    6EMI    H0E  114   1.068   0.431   1.416 -0.3218  0.5769 -2.5775
    7EMI    C01  115   0.525   1.962   3.307  0.3452  0.5066 -0.0289
    7EMI    C04  116   0.310   1.948   3.324 -0.4551  0.5640 -0.0779
    7EMI    C03  117   0.339   1.943   3.193 -0.4024  0.5000 -0.2933
    7EMI    H07  118   0.627   1.969   3.337 -0.1963  2.3650  1.5956
    7EMI    H09  119   0.219   1.923   3.373  0.4002 -3.4608 -0.1852
    7EMI    H08  120   0.271   1.912   3.116  0.1982 -0.8789 -0.2858
    7EMI    C05  121   0.555   1.970   3.061  0.2080  0.8442  0.0349
    7EMI    H0B  122   0.639   1.903   3.075 -0.1883  0.6100  1.5121
    7EMI    H0C  123   0.495   1.937   2.978 -1.3032 -1.0812  1.7604
    7EMI    H0D  124   0.577   2.074   3.043 -0.5136  1.7252  3.3975
    7EMI    N00  125   0.479   1.960   3.183  0.0797 -0.1230  0.1837
    7EMI    C06  126   0.433   1.978   3.541 -0.5247  0.0405  0.8531
    7EMI    H0F  127   0.535   2.002   3.565 -0.4788 -0.6885  1.3908
    7EMI    C0N  128   0.354   2.087   3.595 -0.3240 -0.1056 -1.1062
    7EMI    H0O  129   0.250   2.076   3.566 -0.1085  0.0143 -1.9620
    7EMI    H0P  130   0.367   2.104   3.701 -0.9417  1.1414 -1.2151
    7EMI    H0Q  131   0.381   2.176   3.540  0.6589  0.0285 -0.4146
    7EMI    N02  132   0.423   1.971   3.394 -0.1260 -0.8401 -0.6355
    7EMI    H0E  133   0.412   1.886   3.593 -0.8630  0.7786  2.0560
    8EMI    C01  134   4.664   4.862   0.362  0.7876 -0.0822 -0.4884
    8EMI    C04  135   4.864   4.774   0.392 -0.0488 -0.3117 -0.4056
    8EMI    C03  136   4.834   4.759   0.264  0.1695 -0.1221  0.1031
    8EMI    H07  137   4.579   4.923   0.382  2.2479  1.1058  2.7830
    8EMI    H09  138   4.953   4.741   0.442 -0.9227 -3.0151 -0.4916
    8EMI    H08  139   4.897   4.721   0.186 -0.2959 -0.2658 -0.2099
    8EMI    C05  140   4.646   4.828   0.108  0.5823 -0.1136  0.1925
    8EMI    H0B  141   4.571   4.906   0.122  2.1709  1.3284  1.0546
    8EMI    H0C  142   4.717   4.857   0.033  0.5418 -0.6004 -0.0346
    8EMI    H0D  143   4.604   4.733   0.079  0.5677  0.1176 -0.5550
    8EMI    N00  144   4.708   4.818   0.240 -0.6945 -0.4987 -0.1328
    8EMI    C06  145   4.756   4.884   0.590 -0.1216  0.5461 -0.2230
    8EMI    H0F  146   4.739   4.793   0.647 -1.9441 -0.1934 -1.8459
    8EMI    C0N  147   4.883   4.959   0.610  0.1554 -0.3917  0.1004
    8EMI    H0O  148   4.964   4.889   0.629  2.3663  1.5957 -1.2293
    8EMI    H0P  149   4.926   5.009   0.523  0.4754  0.8076  0.9110
    8EMI    H0Q  150   4.888   5.010   0.705 -2.6109 -1.2594  0.7685
    8EMI    N02  151   4.754   4.833   0.455 -0.2950 -0.2449  0.1704
    8EMI    H0E  152   4.664   4.939   0.602  0.3394  0.9099  2.2101
    9EMI    C01  153   0.154   2.130   4.584  0.3380  0.5018  0.5579
    9EMI    C04  154   0.156   2.326   4.670  0.4784 -0.2780  0.4432
    9EMI    C03  155   0.166   2.236   4.771  0.3405 -0.3086 -0.5265
    9EMI    H07  156   0.164   2.050   4.514  0.4195  1.5345 -0.6297
    9EMI    H09  157   0.157   2.432   4.676  1.0164 -0.3343  1.4248
    9EMI    H08  158   0.189   2.251   4.874 -0.0965 -2.9610  0.0206
    9EMI    C05  159   0.197   1.982   4.784  0.0239  0.4839 -0.6838
    9EMI    H0B  160   0.292   1.976   4.836 -0.5856 -3.9644  0.3827
    9EMI    H0C  161   0.119   1.955   4.853  0.8005 -1.2995 -0.4330
    9EMI    H0D  162   0.187   1.905   4.708 -0.9865  0.3320 -0.4056
    9EMI    N00  163   0.165   2.111   4.712  0.2776 -0.5629  0.5475
    9EMI    C06  164   0.076   2.299   4.424  0.2294 -0.4143 -0.4377
    9EMI    H0F  165  -0.000   2.376   4.429 -0.5419 -1.1851 -0.0992
    9EMI    C0N  166   0.200   2.346   4.345  0.5091  0.1514  0.1638
    9EMI    H0O  167   0.279   2.271   4.341 -0.4763 -0.8759 -0.6705
    9EMI    H0P  168   0.183   2.359   4.238  1.9308 -1.7098 -0.3548
    9EMI    H0Q  169   0.240   2.430   4.400 -0.3018  0.1593  0.7496
    9EMI    N02  170   0.117   2.253   4.558  0.2300 -0.2109 -0.8939
    9EMI    H0E  171   0.033   2.217   4.368  0.2785 -1.5024  1.0619
   10EMI    C01  172   4.755   0.953   2.604  1.0516  0.3717 -0.2605
   10EMI    C04  173   4.960   0.988   2.661  0.2216 -0.0686 -0.4941
   10EMI    C03  174   4.896   1.107   2.665 -0.6192 -0.0061  0.1979
   10EMI    H07  175   4.660   0.910   2.581  0.9653  1.3734 -1.9359
   10EMI    H09  176   5.058   0.959   2.692 -1.1182 -1.8644  2.5933
   10EMI    H08  177   4.939   1.201   2.692  1.1957 -0.7938  0.2136
   10EMI    C05  178   4.653   1.173   2.633 -0.7053  0.4024  0.0821
   10EMI    H0B  179   4.658   1.237   2.720  0.9382  0.1232  0.2316
   10EMI    H0C  180   4.657   1.245   2.553  0.6791 -0.4735 -0.6757
   10EMI    H0D  181   4.561   1.117   2.631 -1.2840  1.3358 -0.4478
   10EMI    N00  182   4.765   1.083   2.628 -0.0291  0.8365  0.5693
   10EMI    C06  183   4.899   0.744   2.600 -0.5570 -0.6944 -0.3324
   10EMI    H0F  184   4.820   0.713   2.533  0.0508  0.8008 -1.8175
   10EMI    C0N  185   5.027   0.703   2.531  0.2191 -0.6104 -0.7683
   10EMI    H0O  186   5.118   0.751   2.567 -0.4081 -0.0237  0.0815
   10EMI    H0P  187   5.039   0.603   2.572  0.1561  0.0589  0.9958
   10EMI    H0Q  188   5.017   0.704   2.423 -1.0931 -1.8761 -0.6895
   10EMI    N02  189   4.871   0.893   2.620  0.5656 -0.1326 -0.1284
   10EMI    H0E  190   4.889   0.689   2.693 -1.0676 -1.9008 -1.0776
   11EMI    C01  191   4.713   1.873   1.482  0.1220  0.1036 -0.0126
   11EMI    C04  192   4.669   2.029   1.331 -0.4709 -0.8883 -0.0046
   11EMI    C03  193   4.575   2.036   1.431 -1.0009 -0.1700  0.1413
   11EMI    H07  194   4.766   1.802   1.543 -3.3323 -3.0044 -0.3010
   11EMI    H09  195   4.686   2.088   1.244  1.4757  0.6938  1.3618
   11EMI    H08  196   4.493   2.100   1.457 -2.0839 -2.0936  1.7518
   11EMI    C05  197   4.539   1.911   1.651  0.3200  0.5846 -0.1330
   11EMI    H0B  198   4.432   1.911   1.643  0.3321 -0.1221 -0.4377
   11EMI    H0C  199   4.561   1.816   1.700 -1.3698  0.8467  1.2354
   11EMI    H0D  200   4.564   1.994   1.715 -0.2324  1.0211 -0.4798
   11EMI    N00  201   4.603   1.935   1.523 -0.2796 -0.5533 -0.3099
   11EMI    C06  202   4.878   1.890   1.296 -0.7888  0.1158  0.7301
   11EMI    H0F  203   4.925   1.814   1.356  0.9224  0.7373  0.2312
   11EMI    C0N  204   4.855   1.839   1.156  0.0874  0.2231  0.1150
   11EMI    H0O  205   4.945   1.806   1.104 -0.3156  0.5788 -0.8252
   11EMI    H0P  206   4.797   1.748   1.162 -0.6284  0.5593 -1.3191
   11EMI    H0Q  207   4.797   1.896   1.086 -0.3166 -0.5934 -0.2294
   11EMI    N02  208   4.757   1.928   1.367 -0.3351 -0.1829 -0.0889
   11EMI    H0E  209   4.945   1.975   1.289  0.4846 -0.8619  0.7824
   12EMI    C01  210   1.487   2.301   1.466  0.0812  0.5183 -0.1655
   12EMI    C04  211   1.556   2.349   1.667 -0.0752 -0.2524 -0.1122
   12EMI    C03  212   1.423   2.370   1.668  0.4517 -0.8119 -0.2576
   12EMI    H07  213   1.481   2.261   1.367 -0.3156 -0.3113  0.1840
   12EMI    H09  214   1.628   2.346   1.746 -0.0212  2.5229  0.0347
   12EMI    H08  215   1.355   2.392   1.747  2.4524 -0.9883  1.6067
   12EMI    C05  216   1.246   2.321   1.484 -0.2232 -0.6918 -0.3168
   12EMI    H0B  217   1.256   2.269   1.389  0.7988  2.1842 -1.8977
   12EMI    H0C  218   1.195   2.257   1.555  0.3278 -0.2832  0.4522
   12EMI    H0D  219   1.205   2.418   1.461 -2.8029 -0.9603  2.4728
   12EMI    N00  220   1.382   2.333   1.540 -0.5854  0.0618 -0.2337
   12EMI    C06  221   1.728   2.260   1.510 -0.5507 -0.1161  0.4876
   12EMI    H0F  222   1.805   2.329   1.479 -0.1915 -1.7169 -2.6675
   12EMI    C0N  223   1.776   2.156   1.612  0.0331 -0.0832 -0.4156
   12EMI    H0O  224   1.857   2.099   1.569 -0.2375 -1.7175  1.1355
   12EMI    H0P  225   1.801   2.197   1.709 -0.5406 -0.1980 -0.2178
   12EMI    H0Q  226   1.692   2.089   1.620 -0.0339 -0.0862 -1.0673
   12EMI    N02  227   1.596   2.310   1.538 -0.2190 -0.5686  0.2807
   12EMI    H0E  228   1.698   2.206   1.421  1.4976 -0.4156 -0.0668
   13EMI    C01  229   0.242   1.625   4.077 -0.0563 -0.3285  0.4640
   13EMI    C04  230   0.052   1.589   4.180 -0.6174  0.1281 -1.0323
   13EMI    C03  231   0.103   1.707   4.220 -0.8175  0.3660  0.4181
   13EMI    H07  232   0.331   1.618   4.018  0.2330 -1.4916  1.0273
   13EMI    H09  233  -0.026   1.533   4.227  0.3339 -0.2260  0.1945
   13EMI    H08  234   0.075   1.776   4.297  0.2865  1.4326 -0.1024
   13EMI    C05  235   0.294   1.862   4.148  0.5106  0.4030  0.3940
   13EMI    H0B  236   0.341   1.891   4.056  3.0906 -0.6871  1.2803
   13EMI    H0C  237   0.225   1.930   4.196 -0.2498 -0.4876  0.6062
   13EMI    H0D  238   0.381   1.849   4.210  0.3240 -0.2544  0.5203
   13EMI    N00  239   0.212   1.736   4.147  0.3416  0.7916 -0.1053
   13EMI    C06  240   0.165   1.391   4.060  0.7165  0.2266  0.6111
   13EMI    H0F  241   0.077   1.366   4.002  1.6610  0.2039 -0.8682
   13EMI    C0N  242   0.290   1.353   3.968 -0.7420  0.2016  0.4732
   13EMI    H0O  243   0.317   1.248   3.960  2.0898  0.8820 -0.0778
   13EMI    H0P  244   0.266   1.375   3.865 -2.4766 -1.7353  0.3950
   13EMI    H0Q  245   0.381   1.398   4.006 -1.3819  1.6700  0.3199
   13EMI    N02  246   0.154   1.532   4.098 -0.2229  0.0313 -0.1161
   13EMI    H0E  247   0.163   1.321   4.143  0.8662  0.2414  0.6266
   14EMI    C01  248   3.454   2.606   2.877  0.5861  0.7773  0.3289
   14EMI    C04  249   3.573   2.473   2.754 -0.5713  0.1080  0.4416
   14EMI    C03  250   3.548   2.413   2.873  0.2288 -0.1790 -0.2183
   14EMI    H07  251   3.392   2.689   2.903 -2.6312 -0.6503 -2.0370
   14EMI    H09  252   3.629   2.434   2.672  0.5524  2.2270  0.1195
   14EMI    H08  253   3.573   2.314   2.906  1.5596  0.3283  0.3956
   14EMI    C05  254   3.420   2.470   3.080  0.4876  0.4372 -0.3533
   14EMI    H0B  255   3.327   2.415   3.088  0.8197  0.0735  1.5378
   14EMI    H0C  256   3.491   2.418   3.143  0.1574  0.7551  0.2949
   14EMI    H0D  257   3.392   2.562   3.129 -0.8740 -0.0364 -0.2094
   14EMI    N00  258   3.469   2.496   2.944 -0.0974  0.5596 -0.3355
   14EMI    C06  259   3.499   2.697   2.653 -0.1970 -0.1794  0.7184
   14EMI    H0F  260   3.595   2.747   2.649  0.2510 -1.0376  0.3746
   14EMI    C0N  261   3.449   2.645   2.518  0.3739 -0.4499 -0.3734
   14EMI    H0O  262   3.342   2.633   2.520  0.2509  0.3045 -1.7147
   14EMI    H0P  263   3.460   2.715   2.436  2.2268 -0.2875 -0.0305
   14EMI    H0Q  264   3.485   2.547   2.491 -0.1520 -0.6678 -0.2934
   14EMI    N02  265   3.511   2.595   2.759 -0.2300  0.1153 -0.0201
   14EMI    H0E  266   3.432   2.775   2.686 -0.9193 -0.3114 -0.3557
   15EMI    C01  267   1.291   3.585   0.469 -0.0124  0.2857 -0.4037
   15EMI    C04  268   1.137   3.621   0.314 -0.0953 -0.1509  0.0420
   15EMI    C03  269   1.179   3.735   0.360  0.2118 -0.3927  0.1852
   15EMI    H07  270   1.352   3.526   0.533 -1.0231 -1.2900 -0.8303
   15EMI    H09  271   1.051   3.597   0.255 -0.4734  0.8026  0.1850
   15EMI    H08  272   1.144   3.832   0.333 -3.4546 -0.8672  2.5276
   15EMI    C05  273   1.337   3.813   0.544  0.2288  0.7152  0.1986
   15EMI    H0B  274   1.403   3.872   0.482  0.5576  0.0032 -0.1532
   15EMI    H0C  275   1.256   3.873   0.582 -2.4018 -1.8479 -0.8726
   15EMI    H0D  276   1.390   3.772   0.629 -0.9414  0.2249  0.7209
   15EMI    N00  277   1.269   3.714   0.461 -0.0885  0.4088 -0.2813
   15EMI    C06  278   1.166   3.379   0.390  0.1739  0.6969  0.0037
   15EMI    H0F  279   1.243   3.335   0.451 -1.4348 -2.6244 -0.1445
   15EMI    C0N  280   1.036   3.342   0.459  0.1466 -0.1532  0.1233
   15EMI    H0O  281   1.033   3.238   0.490  0.3759 -0.7919 -1.8745
   15EMI    H0P  282   1.031   3.403   0.548  0.6264 -0.3092  0.2607
   15EMI    H0Q  283   0.943   3.357   0.406 -1.3958  2.1659  3.1477
   15EMI    N02  284   1.206   3.525   0.389 -0.0384 -0.5495 -0.6018
   15EMI    H0E  285   1.180   3.334   0.293  0.4712 -2.8872  1.5394
   16EMI    C01  286   4.692   1.504   2.156  0.3470 -0.2449  0.1517
   16EMI    C04  287   4.509   1.390   2.182  0.6400  0.3572 -0.5267
   16EMI    C03  288   4.603   1.343   2.272  1.1893 -0.7583 -1.0679
   16EMI    H07  289   4.763   1.571   2.113  0.1748 -0.5819 -0.6652
   16EMI    H09  290   4.407   1.361   2.173  0.7352  0.6299 -3.5151
   16EMI    H08  291   4.589   1.267   2.345 -0.4552  2.7970  2.6876
   16EMI    C05  292   4.844   1.378   2.300 -0.9315 -0.6171  0.5440
   16EMI    H0B  293   4.852   1.415   2.401 -0.8506  0.5065  0.1457
   16EMI    H0C  294   4.868   1.275   2.281  1.5977 -0.2869  1.5266
   16EMI    H0D  295   4.910   1.430   2.231 -0.8822 -2.4234 -0.8498
   16EMI    N00  296   4.715   1.418   2.248  0.5542 -0.2020 -0.0881
   16EMI    C06  297   4.499   1.577   2.006  0.3338 -0.1948  0.3022
   16EMI    H0F  298   4.405   1.599   2.055  0.2708  0.3021 -0.0401
   16EMI    C0N  299   4.567   1.711   1.985 -1.0455  0.1216  0.1934
   16EMI    H0O  300   4.645   1.713   1.910  0.7879 -0.4451  1.9836
   16EMI    H0P  301   4.492   1.781   1.951 -0.8342  1.6396  2.6308
   16EMI    H0Q  302   4.606   1.758   2.075  1.1694 -1.3027  0.0565
   16EMI    N02  303   4.566   1.489   2.110  0.3271 -0.1851  0.0459
   16EMI    H0E  304   4.499   1.523   1.912  1.4139 -0.9792  0.7387
   17EMI    C01  305   0.052   0.221   4.318 -0.9092 -0.1562  0.1232
   17EMI    C04  306  -0.037   0.188   4.512  0.2124  0.5933  0.2680
   17EMI    C03  307  -0.132   0.175   4.418 -0.3295 -0.5963 -0.3906
   17EMI    H07  308   0.118   0.246   4.238 -0.6826 -1.4281 -0.1206
   17EMI    H09  309  -0.055   0.170   4.615 -0.1941  2.5366  0.5696
   17EMI    H08  310  -0.236   0.163   4.436 -0.1739 -1.1240  0.1847
   17EMI    C05  311  -0.145   0.200   4.170  0.6802  0.0641  0.6239
   17EMI    H0B  312  -0.085   0.254   4.097  0.2233 -0.6981 -0.3288
   17EMI    H0C  313  -0.139   0.095   4.146 -2.6805 -0.3644  1.2090
   17EMI    H0D  314  -0.246   0.238   4.172  0.6437 -0.0588  1.9231
   17EMI    N00  315  -0.080   0.209   4.299  0.5078  0.6550 -0.1232
   17EMI    C06  316   0.214   0.240   4.510  0.9325  0.3328  0.3357
   17EMI    H0F  317   0.197   0.190   4.604 -2.2730 -1.7519 -1.1717
   17EMI    C0N  318   0.329   0.172   4.434 -0.2746  0.0645 -0.4544
   17EMI    H0O  319   0.418   0.156   4.493 -1.9733  0.0028  2.2720
   17EMI    H0P  320   0.291   0.074   4.408  0.4097 -0.3887  0.1974
   17EMI    H0Q  321   0.352   0.226   4.344  0.5341 -1.8211 -1.4430
   17EMI    N02  322   0.080   0.223   4.446 -0.2614  0.5753 -0.2843
   17EMI    H0E  323   0.226   0.345   4.532  1.9364  0.2117  0.4342
   18EMI    C01  324   2.974   2.402   2.997  0.3249  0.2963 -0.1613
   18EMI    C04  325   3.006   2.196   3.081  0.0186 -0.3377  0.6782
   18EMI    C03  326   3.052   2.196   2.952  0.2481  0.1822 -0.8577
   18EMI    H07  327   2.947   2.505   2.989  0.6349  0.4382  0.5215
   18EMI    H09  328   3.011   2.127   3.163 -1.1917  1.8007  2.6814
   18EMI    H08  329   3.097   2.112   2.904 -0.1662 -0.1656 -0.6484
   18EMI    C05  330   3.065   2.365   2.771 -0.1641 -0.2121  0.5248
   18EMI    H0B  331   3.152   2.324   2.722  0.9520  1.2479  1.2082
   18EMI    H0C  332   2.982   2.329   2.713  1.3198 -1.3869 -0.9499
   18EMI    H0D  333   3.074   2.472   2.763 -0.5264 -0.3157 -2.5958
   18EMI    N00  334   3.024   2.324   2.903  0.3389 -0.0708 -0.2042
   18EMI    C06  335   2.899   2.370   3.232 -0.1909 -0.5741  0.0189
   18EMI    H0F  336   2.912   2.477   3.226 -0.6074 -0.5494 -0.6041
   18EMI    C0N  337   2.757   2.323   3.243  0.3137  0.2326  0.0643
   18EMI    H0O  338   2.718   2.372   3.332 -1.5139 -1.9957  0.5826
   18EMI    H0P  339   2.697   2.341   3.155  0.8131  2.1528  0.0698
   18EMI    H0Q  340   2.763   2.218   3.268 -0.3017 -0.0029 -0.7486
   18EMI    N02  341   2.952   2.323   3.101  0.0364 -0.2492  0.3636
   18EMI    H0E  342   2.963   2.334   3.311 -0.8538 -2.4120 -0.2218
   19EMI    C01  343   0.535   4.073   2.721  0.0477  1.0359  0.3264
   19EMI    C04  344   0.727   4.096   2.814  0.2090  0.2393  0.1290
   19EMI    C03  345   0.704   3.962   2.811  0.4388 -0.3762 -0.4356
   19EMI    H07  346   0.439   4.096   2.680  0.5889  0.7822 -1.1517
   19EMI    H09  347   0.805   4.153   2.860  0.7005 -1.8663  2.0918
   19EMI    H08  348   0.758   3.877   2.845 -1.0397 -0.4957  1.8513
   19EMI    C05  349   0.520   3.820   2.722  0.5837 -0.0060 -0.0976
   19EMI    H0B  350   0.460   3.795   2.809  0.4164  0.8572  0.0485
   19EMI    H0C  351   0.447   3.831   2.644  3.5982 -0.1107 -3.1369
   19EMI    H0D  352   0.598   3.751   2.697  1.3388  0.4245  0.9900
   19EMI    N00  353   0.584   3.950   2.742  0.0872 -0.3949 -0.1105
   19EMI    C06  354   0.616   4.305   2.741  0.6323 -0.0062 -0.4729
   19EMI    H0F  355   0.541   4.324   2.665  0.2654 -1.3339 -0.4613
   19EMI    C0N  356   0.573   4.379   2.875  0.2302 -0.5438 -0.2795
   19EMI    H0O  357   0.594   4.485   2.863 -0.4397 -0.3372  0.2927
   19EMI    H0P  358   0.467   4.358   2.878  0.7608 -3.5056  0.4871
   19EMI    H0Q  359   0.644   4.365   2.956 -0.7300 -2.7101  0.2631
   19EMI    N02  360   0.625   4.161   2.756  0.2733  0.1751 -0.0898
   19EMI    H0E  361   0.702   4.345   2.690  2.4487 -0.4488  2.0586
   20EMI    C01  362   2.365   0.947   0.512 -0.0274  0.3111 -0.1618
   20EMI    C04  363   2.419   0.797   0.663 -1.0840 -0.5115 -0.5098
   20EMI    C03  364   2.523   0.818   0.584 -0.0903 -0.1872  0.6174
   20EMI    H07  365   2.309   1.008   0.445 -2.1883 -0.0522  1.2390
   20EMI    H09  366   2.415   0.724   0.740 -0.7101  0.4982  0.4806
   20EMI    H08  367   2.618   0.770   0.574 -0.8782 -1.4449 -1.5704
   20EMI    C05  368   2.578   0.983   0.390 -0.0680  0.2847  0.1794
   20EMI    H0B  369   2.591   1.090   0.382  0.9349  0.1044 -0.7831
   20EMI    H0C  370   2.675   0.969   0.436  0.0937 -2.2435 -0.7692
   20EMI    H0D  371   2.570   0.934   0.295  0.9455  1.4720 -0.5456
   20EMI    N00  372   2.491   0.916   0.491  0.2754  0.4329  0.1688
   20EMI    C06  373   2.207   0.908   0.700  0.1705  0.2110  0.8749
   20EMI    H0F  374   2.153   0.822   0.665 -0.1018  1.3319 -1.7182
   20EMI    C0N  375   2.222   0.920   0.851 -0.1035  0.3869 -0.1187
   20EMI    H0O  376   2.221   0.823   0.899  0.6412  0.1338 -0.5989
   20EMI    H0P  377   2.315   0.968   0.881 -0.0805 -0.7597  1.8422
   20EMI    H0Q  378   2.144   0.987   0.885 -1.9213 -1.0770 -1.2165
   20EMI    N02  379   2.332   0.897   0.629 -0.4501  0.3833  0.4168
   20EMI    H0E  380   2.162   0.997   0.659  1.4973  0.3540 -0.3414
   21EMI    C01  381   0.010   0.887   2.099  0.6544  0.7809 -0.4657
   21EMI    C04  382  -0.097   0.947   2.279 -0.3410 -0.6110  1.4920
   21EMI    C03  383   0.029   0.993   2.287  0.0492  0.0278  0.1387
   21EMI    H07  384   0.020   0.834   2.006 -0.1543  0.4572 -0.3727
   21EMI    H09  385  -0.182   0.951   2.343 -0.3764 -1.1771  1.4836
   21EMI    H08  386   0.078   1.052   2.362  0.9194  0.5586 -0.8237
   21EMI    C05  387   0.233   0.988   2.137  0.1487 -0.0757 -0.1536
   21EMI    H0B  388   0.302   0.945   2.208  0.1355 -1.7623 -1.1327
   21EMI    H0C  389   0.254   0.943   2.041  1.4056  0.6275 -0.2306
   21EMI    H0D  390   0.247   1.094   2.117  0.9375 -0.4398 -1.6357
   21EMI    N00  391   0.097   0.955   2.173  0.1507 -0.0926 -0.1264
   21EMI    C06  392  -0.229   0.850   2.086 -0.3931  0.6300 -0.2286
   21EMI    H0F  393  -0.214   0.851   1.979 -0.2147 -0.4214 -0.2263
   21EMI    C0N  394  -0.271   0.710   2.134  0.2335 -0.0863 -0.0558
   21EMI    H0O  395  -0.341   0.660   2.068  0.0111 -1.1648  0.9780
   21EMI    H0P  396  -0.185   0.644   2.139 -0.1459 -0.5002  3.7769
   21EMI    H0Q  397  -0.303   0.702   2.237  1.7006  0.1904  0.4488
   21EMI    N02  398  -0.108   0.891   2.152 -1.0093  0.3840 -0.0201
   21EMI    H0E  399  -0.311   0.919   2.093 -1.8213 -0.9970 -0.2541
   22EMI    C01  400   1.173   2.802   3.601 -0.6173 -0.5791 -0.2957
   22EMI    C04  401   1.321   2.960   3.622  0.3255 -0.4120  0.5455
   22EMI    C03  402   1.329   2.885   3.729  0.1638 -0.0295 -0.3395
   22EMI    H07  403   1.100   2.737   3.558 -0.7004  0.4572 -1.7913
   22EMI    H09  404   1.378   3.046   3.598  0.9051 -0.4810  1.6287
   22EMI    H08  405   1.396   2.898   3.812  1.1386  0.9737 -1.2440
   22EMI    C05  406   1.209   2.669   3.796  0.2987 -0.1364 -0.2906
   22EMI    H0B  407   1.106   2.681   3.826  0.4435  2.0114 -0.4705
   22EMI    H0C  408   1.222   2.572   3.750 -0.8092 -1.4023  1.9162
   22EMI    H0D  409   1.275   2.668   3.882  1.0127 -3.4073 -0.7388
   22EMI    N00  410   1.244   2.782   3.711  0.2621  0.0136  0.8734
   22EMI    C06  411   1.178   2.961   3.404 -0.3358  0.4830 -1.1626
   22EMI    H0F  412   1.159   2.867   3.355  1.5863 -0.4000 -0.2992
   22EMI    C0N  413   1.058   3.045   3.427  0.2731 -0.4350  1.0403
   22EMI    H0O  414   1.004   3.064   3.335  0.6897 -2.4636  0.3208
   22EMI    H0P  415   0.992   2.994   3.497 -2.4543  1.3179 -0.1112
   22EMI    H0Q  416   1.080   3.140   3.474 -2.3523  1.2441 -0.8680
   22EMI    N02  417   1.231   2.904   3.533 -0.0692 -0.2002  0.4013
   22EMI    H0E  418   1.256   2.999   3.341 -1.4348 -1.2159 -3.7108
   23EMI    C01  419   1.579   3.770   2.689  0.8954 -0.1432  0.0518
   23EMI    C04  420   1.438   3.900   2.795  0.5362 -0.6124  0.3341
   23EMI    C03  421   1.540   3.976   2.751 -0.1569  0.2570 -0.3250
   23EMI    H07  422   1.612   3.684   2.635 -2.9499 -1.3061 -0.7626
   23EMI    H09  423   1.353   3.938   2.847  0.7340 -1.5472  1.3793
   23EMI    H08  424   1.561   4.080   2.765  0.6673  0.0953 -0.3400
   23EMI    C05  425   1.736   3.935   2.585  0.7166 -0.1178 -0.0528
   23EMI    H0B  426   1.711   4.008   2.509 -0.1075  0.7510  1.0108
   23EMI    H0C  427   1.813   3.979   2.647  0.2913  0.5958 -0.0137
   23EMI    H0D  428   1.763   3.845   2.532  0.5032  0.8104 -1.8365
   23EMI    N00  429   1.624   3.895   2.671  0.8525  0.4873  0.4129
   23EMI    C06  430   1.395   3.664   2.821  0.3973  0.4456  0.4978
   23EMI    H0F  431   1.404   3.579   2.754  3.5646 -0.2245  1.5895
   23EMI    C0N  432   1.470   3.613   2.941 -0.1702  0.3338  0.1213
   23EMI    H0O  433   1.523   3.693   2.991 -2.5204  1.6090  0.7455
   23EMI    H0P  434   1.399   3.589   3.020  1.1840  0.5080  1.4434
   23EMI    H0Q  435   1.528   3.526   2.913 -0.1230  1.1112 -2.4696
   23EMI    N02  436   1.462   3.774   2.756  0.2720 -0.0988 -0.5162
   23EMI    H0E  437   1.293   3.696   2.837  0.4539  1.8636 -1.6064
   24EMI    C01  438   3.492   0.548   2.642  0.3003  0.2432  0.0826
   24EMI    C04  439   3.351   0.465   2.781  0.2548 -0.3991 -0.4990
   24EMI    C03  440   3.409   0.362   2.725 -0.0750 -0.1289 -0.4534
   24EMI    H07  441   3.561   0.616   2.595 -1.6692  3.3605  1.4112
   24EMI    H09  442   3.270   0.463   2.851  0.0875 -0.2368 -0.6866
   24EMI    H08  443   3.397   0.256   2.735 -0.6327 -0.2241 -1.9810
   24EMI    C05  444   3.625   0.342   2.598  0.1598  0.4669  0.0945
   24EMI    H0B  445   3.612   0.235   2.590  1.5832  0.4230 -2.7152
   24EMI    H0C  446   3.643   0.377   2.498 -1.3142 -0.2397 -0.4482
   24EMI    H0D  447   3.714   0.357   2.657  0.8260 -0.3395 -0.6825
   24EMI    N00  448   3.510   0.419   2.648 -0.6224 -0.3152 -0.5473
   24EMI    C06  449   3.333   0.709   2.743  0.4208  0.0172 -0.2261
   24EMI    H0F  450   3.242   0.719   2.686  1.3546 -1.4566 -2.0879
   24EMI    C0N  451   3.333   0.745   2.886  0.5853 -0.8367  0.4051
   24EMI    H0O  452   3.242   0.718   2.939  0.5876  3.1899  2.8118
   24EMI    H0P  453   3.408   0.711   2.956  0.6335  0.7317  1.1475
   24EMI    H0Q  454   3.340   0.852   2.898 -1.2080 -0.6956  0.4494
   24EMI    N02  455   3.393   0.580   2.722 -0.9449 -0.3389  0.3849
   24EMI    H0E  456   3.403   0.780   2.703  0.2797  1.5925  2.1262
   25EMI    C01  457   4.204   4.552   0.020 -0.3211 -0.6513  0.2278
   25EMI    C04  458   4.416   4.521  -0.003 -0.1774  0.3661 -0.6510
   25EMI    C03  459   4.402   4.568   0.115 -0.1358 -0.0820  0.0166
   25EMI    H07  460   4.098   4.559   0.008 -0.3112 -0.3306  0.3193
   25EMI    H09  461   4.505   4.489  -0.051 -1.8125 -2.1043 -2.2776
   25EMI    H08  462   4.478   4.579   0.189  0.5273  0.7677 -0.7526
   25EMI    C05  463   4.210   4.670   0.243 -0.3789  0.2362  0.5693
   25EMI    H0B  464   4.220   4.603   0.327  2.8260  1.7382  1.5572
   25EMI    H0C  465   4.272   4.753   0.275 -1.5830  2.0182 -1.4849
   25EMI    H0D  466   4.107   4.702   0.232 -0.6051 -0.6679 -0.0064
   25EMI    N00  467   4.266   4.600   0.126 -1.0610 -0.3928 -0.0251
   25EMI    C06  468   4.265   4.436  -0.192  0.3310  0.0134 -0.0198
   25EMI    H0F  469   4.222   4.509  -0.259  1.8984  1.9603  0.9773
   25EMI    C0N  470   4.383   4.367  -0.253  0.5668  0.4612  0.2310
   25EMI    H0O  471   4.453   4.442  -0.288  0.4378  1.7721  2.6406
   25EMI    H0P  472   4.426   4.299  -0.181  0.1840  0.3968  0.3988
   25EMI    H0Q  473   4.348   4.313  -0.341 -0.3751  0.5679  0.5252
   25EMI    N02  474   4.292   4.499  -0.059  0.3118 -0.1984  0.8573
   25EMI    H0E  475   4.191   4.359  -0.177  2.7117 -2.5236 -0.5555
   26EMI    C01  476   1.907   3.525   3.544  0.1795 -0.1300 -0.0522
   26EMI    C04  477   1.861   3.321   3.524  0.0760 -0.7046  1.2542
   26EMI    C03  478   1.814   3.353   3.643  0.2033 -1.1831  0.2868
   26EMI    H07  479   1.944   3.619   3.511 -2.7385  1.2553  0.2717
   26EMI    H09  480   1.858   3.227   3.474  0.7925  0.0683 -0.3250
   26EMI    H08  481   1.758   3.300   3.716  1.3931 -1.0616  1.3082
   26EMI    C05  482   1.799   3.580   3.755 -0.3813 -0.8172 -0.0521
   26EMI    H0B  483   1.871   3.660   3.751 -1.8514  0.5235 -0.3658
   26EMI    H0C  484   1.704   3.620   3.725 -0.7953 -0.5106  1.5567
   26EMI    H0D  485   1.791   3.531   3.851 -0.9235  1.7372  1.2969
   26EMI    N00  486   1.836   3.492   3.649 -0.0249  0.1429 -0.6562
   26EMI    C06  487   1.996   3.430   3.341 -0.5534  0.1973 -0.1979
   26EMI    H0F  488   1.927   3.479   3.274 -2.7956 -2.0932  0.2779
   26EMI    C0N  489   2.141   3.472   3.349 -0.0014 -0.0598  0.0452
   26EMI    H0O  490   2.201   3.384   3.331 -0.3827 -0.5082  0.9034
   26EMI    H0P  491   2.166   3.541   3.269  0.6831  0.5972  0.8073
   26EMI    H0Q  492   2.182   3.510   3.442  1.8508  1.2938 -1.2540
   26EMI    N02  493   1.919   3.426   3.465 -0.0210 -0.4452 -0.0083
   26EMI    H0E  494   1.993   3.330   3.300  0.0497 -1.0429  2.5471
   27EMI    C01  495   0.999   2.232   2.905 -0.3159 -0.2378  0.3424
   27EMI    C04  496   1.146   2.400   2.933 -0.5454 -0.0969  0.3076
   27EMI    C03  497   1.124   2.337   3.051  0.1848 -0.4998 -0.7078
   27EMI    H07  498   0.931   2.157   2.869 -0.2601 -1.1937  2.1150
   27EMI    H09  499   1.209   2.478   2.897 -0.8662  0.0459  0.0501
   27EMI    H08  500   1.165   2.357   3.148 -0.3979  1.3531 -0.8033
   27EMI    C05  501   0.932   2.181   3.136  0.0542 -0.1580  0.2637
   27EMI    H0B  502   0.899   2.252   3.211 -1.1578 -0.3668 -0.0504
   27EMI    H0C  503   0.848   2.143   3.081  1.9757 -2.0530 -1.5281
   27EMI    H0D  504   0.988   2.102   3.182 -1.9096 -2.0012 -0.3749
   27EMI    N00  505   1.014   2.252   3.033  0.1932  0.6811 -0.4816
   27EMI    C06  506   1.054   2.337   2.695  0.5275 -0.2929  0.4606
   27EMI    H0F  507   1.033   2.441   2.675 -2.3355 -0.6928  0.9986
   27EMI    C0N  508   1.174   2.266   2.631  0.5671 -0.8956 -0.3164
   27EMI    H0O  509   1.158   2.221   2.534 -0.3812 -0.6824 -0.2711
   27EMI    H0P  510   1.255   2.338   2.620 -1.1775  1.4450  1.0273
   27EMI    H0Q  511   1.205   2.195   2.707  1.8025  0.4132  0.4779
   27EMI    N02  512   1.066   2.326   2.840  0.6027  0.3928 -0.5304
   27EMI    H0E  513   0.961   2.287   2.675  1.3913 -1.5239 -0.5791
   28EMI    C01  514   2.427   2.141   2.595  0.4061 -0.1237 -0.1683
   28EMI    C04  515   2.596   2.281   2.584  0.0601 -0.0253  0.0002
   28EMI    C03  516   2.575   2.228   2.460  0.4613  0.9544 -0.2729
   28EMI    H07  517   2.352   2.078   2.638  1.4088 -0.5136  1.0819
   28EMI    H09  518   2.664   2.357   2.616  1.7458 -0.9008 -1.3359
   28EMI    H08  519   2.625   2.244   2.367 -0.2692  0.8054 -0.6992
   28EMI    C05  520   2.400   2.070   2.357 -0.1578  0.2882  0.0163
   28EMI    H0B  521   2.365   1.982   2.408  1.9375 -0.1635  0.7799
   28EMI    H0C  522   2.327   2.133   2.306 -0.2746  2.7854  2.9821
   28EMI    H0D  523   2.469   2.029   2.285  0.2036 -0.0852  0.5737
   28EMI    N00  524   2.467   2.149   2.467 -1.4184  0.3858  0.6391
   28EMI    C06  525   2.481   2.266   2.801 -0.1727 -0.5218  0.1414
   28EMI    H0F  526   2.397   2.205   2.832  0.6229 -1.8550 -0.2296
   28EMI    C0N  527   2.603   2.221   2.868 -0.3724 -0.3021 -0.1903
   28EMI    H0O  528   2.682   2.294   2.874 -0.3792 -0.3189  0.1261
   28EMI    H0P  529   2.580   2.202   2.973 -0.0071  0.0181 -0.0526
   28EMI    H0Q  530   2.645   2.131   2.825 -1.9825 -0.9223 -0.5582
   28EMI    N02  531   2.499   2.227   2.663 -0.9592  0.4720 -0.4922
   28EMI    H0E  532   2.464   2.371   2.819  2.9039 -0.0843  1.0681
   29EMI    C01  533   0.559   2.932   0.191 -0.1926  0.0675  0.2591
   29EMI    C04  534   0.625   2.861   0.001  1.1337 -0.7891  0.1887
   29EMI    C03  535   0.591   2.757   0.078 -0.6498  0.6007 -0.5099
   29EMI    H07  536   0.535   3.002   0.269 -2.0134  1.5957 -1.5523
   29EMI    H09  537   0.663   2.862  -0.099  3.3126 -1.7676  0.9634
   29EMI    H08  538   0.600   2.652   0.059  0.5798  0.8422 -1.3927
   29EMI    C05  539   0.501   2.717   0.309  0.3333  0.0464 -0.0438
   29EMI    H0B  540   0.393   2.711   0.309  0.4090 -1.8013 -0.4197
   29EMI    H0C  541   0.539   2.617   0.294  0.0378 -0.0044 -0.4713
   29EMI    H0D  542   0.550   2.767   0.392 -0.2506 -0.1375  0.4115
   29EMI    N00  543   0.548   2.804   0.197 -0.4237  0.5587 -0.4422
   29EMI    C06  544   0.582   3.110   0.026 -0.1287 -1.0577  0.3659
   29EMI    H0F  545   0.665   3.165   0.068  0.3693  1.3083 -3.3104
   29EMI    C0N  546   0.588   3.113  -0.126  0.0682  0.0255  0.7008
   29EMI    H0O  547   0.511   3.053  -0.171  0.0937  1.3508 -1.2592
   29EMI    H0P  548   0.560   3.212  -0.160  0.1946 -0.6454 -1.5039
   29EMI    H0Q  549   0.686   3.075  -0.154 -0.1326 -2.1372  2.5831
   29EMI    N02  550   0.576   2.972   0.069  0.4126 -0.2576  0.2314
   29EMI    H0E  551   0.492   3.162   0.055  0.3995 -0.6960  1.4403
   30EMI    C01  552   0.284   1.926   2.247 -0.4843  0.2527 -0.5825
   30EMI    C04  553   0.302   1.741   2.129 -0.3349 -0.2677  0.3816
   30EMI    C03  554   0.175   1.768   2.144  0.1491  0.4110  0.2322
   30EMI    H07  555   0.307   2.017   2.298  0.4364 -0.0620 -0.4069
   30EMI    H09  556   0.358   1.666   2.078 -0.1454  0.7121 -0.8883
   30EMI    H08  557   0.091   1.715   2.106  0.1362  0.0155  0.8067
   30EMI    C05  558   0.051   1.929   2.291 -0.7764  0.2764 -0.3617
   30EMI    H0B  559  -0.041   1.876   2.272  0.2094 -0.9240 -2.0866
   30EMI    H0C  560   0.062   1.919   2.398 -1.3295  0.4178 -0.2875
   30EMI    H0D  561   0.037   2.034   2.269  2.4179  0.9669  0.3160
   30EMI    N00  562   0.165   1.884   2.215 -0.1961  0.8252 -0.1162
   30EMI    C06  563   0.521   1.832   2.229  0.4712  0.3766 -0.9086
   30EMI    H0F  564   0.560   1.932   2.241  1.9880 -0.0574 -1.9467
   30EMI    C0N  565   0.563   1.736   2.335  0.5777  0.6058 -0.0987
   30EMI    H0O  566   0.503   1.646   2.320 -0.8099  1.7275 -1.5941
   30EMI    H0P  567   0.669   1.717   2.351  1.1511  2.4668 -1.3907
   30EMI    H0Q  568   0.534   1.786   2.427 -1.2973 -1.1219  0.3350
   30EMI    N02  569   0.372   1.830   2.205  0.0422 -0.1728  0.1365
   30EMI    H0E  570   0.567   1.807   2.135  1.4224 -1.4060 -0.0183
   31EMI    C01  571   3.983   1.045   2.366 -0.3791  0.0407 -0.0177
   31EMI    C04  572   3.989   1.033   2.149  0.0573 -0.6396 -0.3028
   31EMI    C03  573   3.862   1.046   2.184  0.5693  0.2544  0.3838
   31EMI    H07  574   4.003   1.048   2.471 -0.5611  0.8288  0.0046
   31EMI    H09  575   4.033   1.030   2.052  1.1511  0.5550  0.1328
   31EMI    H08  576   3.774   1.060   2.125  1.6053 -0.3062 -1.3861
   31EMI    C05  577   3.745   1.073   2.404 -0.1168  0.6349 -0.7817
   31EMI    H0B  578   3.773   1.140   2.484  0.0550 -0.1287 -0.1865
   31EMI    H0C  579   3.661   1.118   2.354 -0.8977  1.5548  1.2342
   31EMI    H0D  580   3.715   0.975   2.438  1.6181  0.7884  1.4706
   31EMI    N00  581   3.860   1.054   2.317 -0.0589 -0.3961  0.2449
   31EMI    C06  582   4.201   0.993   2.276 -0.5910  0.4878 -0.8198
   31EMI    H0F  583   4.224   1.003   2.381  0.7077  0.0605 -1.0506
   31EMI    C0N  584   4.246   0.855   2.237  0.5335  0.4172 -0.5277
   31EMI    H0O  585   4.349   0.841   2.267  0.3598  1.5385  0.7119
   31EMI    H0P  586   4.179   0.780   2.277  0.9483 -0.4745 -1.4809
   31EMI    H0Q  587   4.222   0.837   2.133  0.5128 -0.4126 -0.3871
   31EMI    N02  588   4.060   1.023   2.266  0.3800  0.5038  0.2592
   31EMI    H0E  589   4.258   1.069   2.224  0.3180  2.2512  2.4926
   32EMI    C01  590   0.999   3.138   4.288 -0.2995 -0.2988  0.0402
   32EMI    C04  591   1.207   3.106   4.269 -0.0774  0.1146  0.2484
   32EMI    C03  592   1.139   2.989   4.262 -0.0997  0.1582 -0.1490
   32EMI    H07  593   0.905   3.189   4.289  0.0837  0.4288  0.0762
   32EMI    H09  594   1.312   3.119   4.252 -0.0142  0.9427  1.1897
   32EMI    H08  595   1.173   2.890   4.243  0.8953 -0.4930  4.1018
   32EMI    C05  596   0.894   2.917   4.263  0.0220 -0.1287  0.2876
   32EMI    H0B  597   0.809   2.958   4.317 -0.0745  1.1312 -0.7515
   32EMI    H0C  598   0.859   2.912   4.160 -0.0109  2.2398  0.1238
   32EMI    H0D  599   0.917   2.821   4.306 -1.9642 -0.2091  1.3057
   32EMI    N00  600   1.012   3.010   4.280  0.1252  0.0308  0.2786
   32EMI    C06  601   1.134   3.347   4.288  0.5150 -0.2748  0.8838
   32EMI    H0F  602   1.133   3.384   4.389 -3.9350 -1.7156  1.5697
   32EMI    C0N  603   1.263   3.380   4.207 -0.3383  0.8741 -0.2188
   32EMI    H0O  604   1.272   3.325   4.114  2.4476 -0.4510  0.6992
   32EMI    H0P  605   1.286   3.484   4.187  3.0420  0.3116  0.1216
   32EMI    H0Q  606   1.352   3.350   4.261  0.2581 -0.5601 -1.8901
   32EMI    N02  607   1.114   3.201   4.296 -1.0424  0.3102 -0.1220
   32EMI    H0E  608   1.049   3.387   4.236  1.5249  0.3799 -0.3231
   33EMI    C01  609   0.030   3.155   3.314 -0.0538  1.0474 -0.7292
   33EMI    C04  610  -0.184   3.113   3.323 -0.1448  0.1285  0.4873
   33EMI    C03  611  -0.168   3.244   3.317  0.0998 -0.2916 -0.6179
   33EMI    H07  612   0.134   3.138   3.295  0.0954  1.3734 -0.2233
   33EMI    H09  613  -0.276   3.059   3.335 -0.1529 -0.0265 -0.1763
   33EMI    H08  614  -0.249   3.314   3.318  0.4678  0.2835 -3.4525
   33EMI    C05  615   0.034   3.398   3.319 -0.1689  1.0526 -0.3330
   33EMI    H0B  616   0.137   3.379   3.344 -0.2161  1.1133 -0.0790
   33EMI    H0C  617   0.020   3.434   3.218  0.7008  2.2739 -0.0403
   33EMI    H0D  618  -0.013   3.467   3.388 -0.5666 -0.9030  1.4872
   33EMI    N00  619  -0.033   3.271   3.319  0.1845 -0.2422 -0.6827
   33EMI    C06  620  -0.039   2.914   3.291 -0.5905  0.7904  0.9131
   33EMI    H0F  621  -0.135   2.867   3.304 -1.3569  2.3282  1.1015
   33EMI    C0N  622   0.008   2.893   3.148  0.0914  0.3700  0.2646
   33EMI    H0O  623   0.098   2.949   3.122  0.7319 -1.5079 -1.9406
   33EMI    H0P  624   0.025   2.787   3.140 -3.7518 -0.3030 -0.6917
   33EMI    H0Q  625  -0.067   2.917   3.073  0.0152 -1.1306 -0.1595
   33EMI    N02  626  -0.058   3.056   3.307  0.6088 -0.4911 -0.4267
   33EMI    H0E  627   0.028   2.877   3.367 -2.3081 -0.6280  1.7968
   34EMI    C01  628   4.152   3.168   0.968  0.1839 -0.1809  0.6471
   34EMI    C04  629   4.238   3.312   0.835  0.0236 -0.4154 -0.0945
   34EMI    C03  630   4.286   3.333   0.958  0.3171 -0.1155 -0.3588
   34EMI    H07  631   4.089   3.091   1.008 -0.5558 -0.1307 -0.3826
   34EMI    H09  632   4.241   3.365   0.742 -0.8884  1.4382  0.8644
   34EMI    H08  633   4.354   3.407   0.994  0.8237 -0.8560  0.2085
   34EMI    C05  634   4.282   3.197   1.184  0.2323 -0.0333 -0.5076
   34EMI    H0B  635   4.383   3.173   1.211 -0.2613  0.4873  2.0974
   34EMI    H0C  636   4.244   3.280   1.242 -0.9032 -0.9627  0.1433
   34EMI    H0D  637   4.225   3.111   1.217  2.0756 -0.8403  0.7040
   34EMI    N00  638   4.238   3.237   1.045 -0.3390 -0.1221 -0.4728
   34EMI    C06  639   4.063   3.160   0.740  0.0794  0.1346  0.0332
   34EMI    H0F  640   4.022   3.067   0.777  0.1606  0.8278  1.9933
   34EMI    C0N  641   3.940   3.253   0.707 -0.1389  0.1616  0.4089
   34EMI    H0O  642   3.874   3.209   0.633 -0.5945 -0.1846  1.0110
   34EMI    H0P  643   3.886   3.278   0.797 -0.8742  0.2944 -0.0593
   34EMI    H0Q  644   3.988   3.345   0.676  0.3517  1.0843  3.5536
   34EMI    N02  645   4.145   3.215   0.848  0.0793 -0.4336  0.5624
   34EMI    H0E  646   4.116   3.128   0.652  0.4942 -0.3362  0.4498
   35EMI    C01  647   4.709   1.861   4.510 -0.1619  0.1037 -0.0631
   35EMI    C04  648   4.621   2.046   4.487  0.1463  0.4182  0.4549
   35EMI    C03  649   4.552   1.987   4.586  0.0015  0.4396  0.1567
   35EMI    H07  650   4.768   1.771   4.508 -0.6324 -0.4014  3.1052
   35EMI    H09  651   4.611   2.146   4.451  0.5929  0.0123 -0.8581
   35EMI    H08  652   4.474   2.031   4.644 -0.2529 -0.0312  0.1825
   35EMI    C05  653   4.577   1.762   4.696  0.3575 -0.6008  0.8904
   35EMI    H0B  654   4.615   1.666   4.664  1.2638  0.3423 -1.0043
   35EMI    H0C  655   4.614   1.794   4.793  1.2470 -0.3894  0.4916
   35EMI    H0D  656   4.469   1.759   4.693  0.3936 -1.8892 -1.7517
   35EMI    N00  657   4.614   1.867   4.602  0.3570  0.1373 -0.3721
   35EMI    C06  658   4.824   2.015   4.337 -0.5854  0.2322  0.7459
   35EMI    H0F  659   4.881   1.925   4.315  1.3710  1.6786 -0.3797
   35EMI    C0N  660   4.755   2.072   4.214 -0.4182 -0.5055 -0.0332
   35EMI    H0O  661   4.720   2.172   4.235  0.4019  0.0419 -1.1461
   35EMI    H0P  662   4.829   2.081   4.135 -0.7389 -0.2305 -0.3022
   35EMI    H0Q  663   4.677   2.001   4.190 -0.0160 -0.5285 -1.3475
   35EMI    N02  664   4.733   1.978   4.453 -0.3653  0.0954  0.1550
   35EMI    H0E  665   4.899   2.082   4.377 -2.2443  1.6409  1.6448
   36EMI    C01  666   3.483   3.379   3.031  0.6234 -0.2165 -0.4519
   36EMI    C04  667   3.601   3.411   3.215 -0.4201  0.8880  0.0307
   36EMI    C03  668   3.477   3.389   3.251 -0.2124  0.7186 -0.5382
   36EMI    H07  669   3.448   3.371   2.931  0.4026  0.0453 -0.3975
   36EMI    H09  670   3.676   3.423   3.290 -0.2207  0.9456 -0.1788
   36EMI    H08  671   3.440   3.379   3.350  2.8614 -0.4865  0.6193
   36EMI    C05  672   3.258   3.344   3.121 -0.5725 -0.1737 -0.3778
   36EMI    H0B  673   3.204   3.397   3.043 -1.7765  0.8342  1.0921
   36EMI    H0C  674   3.245   3.239   3.098  1.3998 -0.4557 -0.3573
   36EMI    H0D  675   3.194   3.376   3.201  0.4680  1.5610 -0.2020
   36EMI    N00  676   3.404   3.372   3.135  0.7229 -0.3898  0.1810
   36EMI    C06  677   3.730   3.404   2.998 -0.0549  0.0355  0.0339
   36EMI    H0F  678   3.775   3.503   2.999 -0.9070  0.4452  1.9695
   36EMI    C0N  679   3.827   3.309   3.055 -0.5060 -0.2277 -0.0077
   36EMI    H0O  680   3.766   3.223   3.077  0.8997 -0.7904  2.0892
   36EMI    H0P  681   3.905   3.287   2.982  0.6156 -1.9666  1.6110
   36EMI    H0Q  682   3.878   3.342   3.146  0.3114 -0.7251 -0.2717
   36EMI    N02  683   3.605   3.404   3.074 -0.4909  0.0748  0.6340
   36EMI    H0E  684   3.704   3.374   2.897  0.4869  0.3728 -0.2186
   37EMI    C01  685   0.853   2.314   3.767 -0.2045  0.5218  0.1794
   37EMI    C04  686   0.666   2.214   3.827  0.2182 -0.7670  0.0146
   37EMI    C03  687   0.728   2.142   3.732 -0.5052 -0.3748 -0.3662
   37EMI    H07  688   0.933   2.384   3.756 -0.2387  0.5939  0.3894
   37EMI    H09  689   0.574   2.198   3.878  0.0334  1.9833  0.6838
   37EMI    H08  690   0.705   2.044   3.695 -0.5248 -1.3530  2.0379
   37EMI    C05  691   0.924   2.183   3.576 -0.4249  0.3754  0.3065
   37EMI    H0B  692   0.933   2.075   3.580 -2.1800  0.1397 -0.8530
   37EMI    H0C  693   0.887   2.207   3.477  1.0422 -1.0968 -0.6628
   37EMI    H0D  694   1.023   2.226   3.577 -1.4095  3.2220 -3.4787
   37EMI    N00  695   0.843   2.210   3.694  0.6576 -0.3977  0.1198
   37EMI    C06  696   0.735   2.420   3.958  0.2336 -0.6131  0.0194
   37EMI    H0F  697   0.645   2.390   4.010 -0.4754  1.0485 -0.1780
   37EMI    C0N  698   0.860   2.443   4.055  1.0098  0.3991  0.2398
   37EMI    H0O  699   0.946   2.492   4.009  1.0012 -0.7589 -1.0814
   37EMI    H0P  700   0.822   2.510   4.131  2.5022 -0.5057  1.8582
   37EMI    H0Q  701   0.890   2.357   4.113  1.4299  0.0364 -0.4932
   37EMI    N02  702   0.754   2.316   3.855  0.0662 -0.4109  0.4153
   37EMI    H0E  703   0.721   2.513   3.904 -1.3969 -1.9983 -2.0749
   38EMI    C01  704   0.773   2.437   4.990 -0.3065  0.1272  0.3105
   38EMI    C04  705   0.834   2.476   4.785 -0.0177  0.3241  0.2590
   38EMI    C03  706   0.740   2.381   4.783 -0.5939 -0.7299 -0.4551
   38EMI    H07  707   0.758   2.430   5.096 -1.2455  2.1221  0.3592
   38EMI    H09  708   0.879   2.521   4.699 -2.4519 -0.5055 -1.5769
   38EMI    H08  709   0.720   2.330   4.691  2.6385 -1.7362 -0.7214
   38EMI    C05  710   0.587   2.276   4.958 -0.7415  0.4779  0.3437
   38EMI    H0B  711   0.586   2.185   4.900  0.3485 -0.3994  1.6239
   38EMI    H0C  712   0.614   2.252   5.060  0.9456 -0.7590 -0.3542
   38EMI    H0D  713   0.493   2.330   4.957 -1.8613 -1.3760 -0.2948
   38EMI    N00  714   0.699   2.357   4.912  0.7972 -0.3964 -0.0665
   38EMI    C06  715   0.957   2.598   4.968 -0.0326 -0.0630 -0.8332
   38EMI    H0F  716   0.961   2.684   4.903 -1.1617 -0.3447 -1.3134
   38EMI    C0N  717   0.945   2.658   5.105  0.1269 -0.2611  0.5477
   38EMI    H0O  718   0.968   2.584   5.182  1.9621 -0.4698 -0.1413
   38EMI    H0P  719   1.015   2.737   5.129 -0.0589 -0.5952  2.3640
   38EMI    H0Q  720   0.842   2.687   5.123  0.2481 -0.3647  1.4527
   38EMI    N02  721   0.863   2.505   4.919 -0.5729  0.4971  0.4462
   38EMI    H0E  722   1.048   2.542   4.950  1.1591  1.2810  0.7622
   39EMI    C01  723   3.589   2.092   0.407  0.2532  0.7849  0.1800
   39EMI    C04  724   3.508   2.282   0.328 -0.3933 -0.0475 -0.1319
   39EMI    C03  725   3.422   2.185   0.299 -0.3553 -0.4299  0.6789
   39EMI    H07  726   3.657   2.021   0.448  0.0615  1.0623  0.9941
   39EMI    H09  727   3.501   2.386   0.306 -0.8886 -0.2465 -0.9385
   39EMI    H08  728   3.334   2.188   0.238 -1.7675  0.0454  2.6375
   39EMI    C05  729   3.394   1.943   0.363 -1.0672 -0.5585  1.0563
   39EMI    H0B  730   3.335   1.942   0.273 -0.0049 -0.1864  0.3320
   39EMI    H0C  731   3.463   1.860   0.362  0.7276  0.8449 -0.9866
   39EMI    H0D  732   3.327   1.936   0.447 -0.5123  2.0324  1.8031
   39EMI    N00  733   3.463   2.072   0.362  0.5131  0.1294 -0.0533
   39EMI    C06  734   3.732   2.295   0.448  0.0315 -0.8973  0.3056
   39EMI    H0F  735   3.789   2.344   0.370 -1.3307 -0.2414 -0.3281
   39EMI    C0N  736   3.709   2.388   0.565  0.2748 -0.3852  0.3534
   39EMI    H0O  737   3.638   2.468   0.549 -0.0049 -0.0425  2.8038
   39EMI    H0P  738   3.655   2.332   0.641  0.6541  2.2486  2.7405
   39EMI    H0Q  739   3.802   2.431   0.600  0.2290  0.0439 -0.0461
   39EMI    N02  740   3.612   2.221   0.401  0.4386 -0.4937 -0.5219
   39EMI    H0E  741   3.793   2.218   0.491 -1.2103 -1.8145  0.4680
   40EMI    C01  742   1.636   2.707   3.504 -1.1328 -0.3671  0.2390
   40EMI    C04  743   1.547   2.601   3.673 -0.9446 -0.0935  0.4146
   40EMI    C03  744   1.472   2.588   3.561 -0.0287  0.3017 -0.1118
   40EMI    H07  745   1.706   2.765   3.449 -0.5247  0.0275  1.3968
   40EMI    H09  746   1.525   2.578   3.775 -0.7599 -5.2566 -0.4586
   40EMI    H08  747   1.377   2.540   3.557 -0.0137  0.0411  1.7261
   40EMI    C05  748   1.489   2.646   3.316  0.1545  0.1214  0.1637
   40EMI    H0B  749   1.409   2.573   3.314  0.0583  0.1277  2.0616
   40EMI    H0C  750   1.445   2.742   3.291  0.0560  0.6214  2.1093
   40EMI    H0D  751   1.558   2.607   3.242 -1.8818 -0.5457 -1.5259
   40EMI    N00  752   1.535   2.644   3.452  0.4959 -0.0682 -0.0474
   40EMI    C06  753   1.763   2.719   3.724  0.0465  0.7180  0.5903
   40EMI    H0F  754   1.710   2.742   3.815 -1.7978  0.9855 -0.5103
   40EMI    C0N  755   1.871   2.615   3.743  0.0609  0.3781  0.5039
   40EMI    H0O  756   1.897   2.569   3.648 -1.9800 -0.1325  0.1516
   40EMI    H0P  757   1.966   2.665   3.757  1.1628 -1.5218  0.3034
   40EMI    H0Q  758   1.843   2.539   3.815  1.1030  0.2055  0.7576
   40EMI    N02  759   1.658   2.671   3.634  0.2995 -0.9651  0.2402
   40EMI    H0E  760   1.800   2.813   3.687 -0.6974  0.9067  0.3243
   41EMI    C01  761   4.496   3.206   0.508  0.9495 -0.5377 -0.3068
   41EMI    C04  762   4.593   3.328   0.354  0.5247  0.1742 -0.5459
   41EMI    C03  763   4.625   3.197   0.337 -0.3282  0.3024  0.0025
   41EMI    H07  764   4.431   3.193   0.592 -0.7553 -0.3727 -1.5278
   41EMI    H09  765   4.625   3.417   0.305  1.0393  0.0627 -0.4173
   41EMI    H08  766   4.697   3.155   0.270  1.3039  3.7295 -0.5819
   41EMI    C05  767   4.570   2.981   0.453  0.5684  0.4646  0.0130
   41EMI    H0B  768   4.571   2.931   0.357  3.3433  1.6712 -0.6876
   41EMI    H0C  769   4.655   2.963   0.517 -1.5571  0.1690  2.9528
   41EMI    H0D  770   4.484   2.944   0.505  2.3973 -3.4078  0.6072
   41EMI    N00  771   4.557   3.124   0.432 -0.4811 -0.3540 -0.0501
   41EMI    C06  772   4.440   3.447   0.527  0.0335  0.6813 -0.2497
   41EMI    H0F  773   4.500   3.536   0.514  0.0739  1.0311  1.9849
   41EMI    C0N  774   4.291   3.467   0.474 -0.3374  0.0298 -0.5538
   41EMI    H0O  775   4.230   3.537   0.531  0.4671  0.7931 -0.6047
   41EMI    H0P  776   4.292   3.502   0.371  1.9975  1.2190 -0.1853
   41EMI    H0Q  777   4.248   3.369   0.489 -0.4506  0.5252  3.3645
   41EMI    N02  778   4.515   3.330   0.468  0.1024 -0.4807  0.2193
   41EMI    H0E  779   4.440   3.434   0.634 -2.1424  1.1993 -0.1395
   42EMI    C01  780   5.010   1.967   3.708  0.6045  1.1143  0.5453
   42EMI    C04  781   5.019   2.130   3.567  0.0937 -0.6065 -0.2964
   42EMI    C03  782   5.110   2.152   3.662 -0.5856  0.1100  0.1301
   42EMI    H07  783   4.985   1.873   3.751  2.9987  0.4318  0.5459
   42EMI    H09  784   5.000   2.190   3.480  0.9689  0.8447  0.4702
   42EMI    H08  785   5.187   2.226   3.671  1.4343 -1.9691  0.8998
   42EMI    C05  786   5.160   2.056   3.888  1.0177  0.5892 -0.1970
   42EMI    H0B  787   5.220   1.967   3.898 -0.9637 -0.9479 -1.3883
   42EMI    H0C  788   5.216   2.149   3.890  1.9662  0.0491 -1.0812
   42EMI    H0D  789   5.080   2.051   3.960  0.4969  0.0509 -0.7963
   42EMI    N00  790   5.096   2.054   3.756 -0.0212 -0.2088  0.4282
   42EMI    C06  791   4.856   1.945   3.515  0.1419 -0.0421 -0.1612
   42EMI    H0F  792   4.791   1.899   3.588 -0.2465 -0.1112 -0.5441
   42EMI    C0N  793   4.767   2.039   3.441  0.5104  0.6023 -0.5434
   42EMI    H0O  794   4.799   2.077   3.345 -0.5681  0.9275 -0.7876
   42EMI    H0P  795   4.676   1.985   3.419 -0.1864  1.4173  0.2431
   42EMI    H0Q  796   4.738   2.130   3.493 -0.6307 -1.7342  3.3611
   42EMI    N02  797   4.960   2.012   3.597  0.2045  0.0983  0.2234
   42EMI    H0E  798   4.899   1.878   3.443  1.4539  1.8241 -1.2015
   43EMI    C01  799   1.342   4.889   2.697 -0.5384  0.8521  0.5946
   43EMI    C04  800   1.185   4.976   2.575  0.0228  0.2300 -0.2792
   43EMI    C03  801   1.195   4.851   2.537  0.0065  0.3274  0.1823
   43EMI    H07  802   1.420   4.881   2.769  0.4555  1.2507 -0.4006
   43EMI    H09  803   1.118   5.044   2.527 -0.6479  0.6035  1.1542
   43EMI    H08  804   1.138   4.807   2.459 -1.3527 -0.0437  1.3322
   43EMI    C05  805   1.330   4.654   2.604  0.5624  0.5120 -0.6074
   43EMI    H0B  806   1.432   4.648   2.637  0.2234 -0.5514  0.3102
   43EMI    H0C  807   1.271   4.583   2.660  2.0480  0.8697  1.5275
   43EMI    H0D  808   1.332   4.622   2.501  0.0791 -1.6720  0.0281
   43EMI    N00  809   1.294   4.800   2.610  0.1131 -0.1822  0.4437
   43EMI    C06  810   1.262   5.124   2.763 -0.1632 -0.0629  0.3374
   43EMI    H0F  811   1.302   5.107   2.862  0.8042  0.7986  0.1148
   43EMI    C0N  812   1.346   5.236   2.692  0.0545  0.3025 -0.3478
   43EMI    H0O  813   1.436   5.189   2.656 -0.3118 -0.1722 -0.6622
   43EMI    H0P  814   1.307   5.297   2.611  0.4196  0.6251 -0.2803
   43EMI    H0Q  815   1.365   5.311   2.768 -3.0373  0.7769  0.1209
   43EMI    N02  816   1.267   4.996   2.685 -0.2498 -0.3193  0.4138
   43EMI    H0E  817   1.158   5.150   2.777 -0.3837 -1.0174  0.5325
   44EMI    C01  818   0.909   2.916   2.666  0.0385  0.5582 -0.0877
   44EMI    C04  819   0.766   3.071   2.628  0.0046  0.0300 -0.0978
   44EMI    C03  820   0.698   2.954   2.623  0.5121 -0.6279  0.3831
   44EMI    H07  821   0.998   2.864   2.696  1.6010  2.8972 -0.4457
   44EMI    H09  822   0.729   3.172   2.622  1.7172  0.6682 -0.4084
   44EMI    H08  823   0.595   2.928   2.610  0.6408 -0.9462 -0.0204
   44EMI    C05  824   0.765   2.711   2.639 -0.4180 -0.1238 -0.5827
   44EMI    H0B  825   0.861   2.669   2.615 -0.0182  1.3173 -1.6656
   44EMI    H0C  826   0.723   2.684   2.735 -0.0208 -0.2330 -0.4402
   44EMI    H0D  827   0.699   2.688   2.557 -2.3888 -2.0416  1.4047
   44EMI    N00  828   0.791   2.857   2.637 -0.4455 -0.7172  0.0119
   44EMI    C06  829   1.010   3.145   2.634 -0.4024  0.9670 -0.0238
   44EMI    H0F  830   1.097   3.082   2.628 -1.9311 -1.2214 -0.5405
   44EMI    C0N  831   0.998   3.221   2.506  0.4388 -0.1865 -0.1121
   44EMI    H0O  832   0.940   3.313   2.507 -0.1025 -0.4880 -1.2627
   44EMI    H0P  833   1.094   3.254   2.470 -0.0445 -0.4722 -1.7915
   44EMI    H0Q  834   0.958   3.158   2.427 -0.8891  0.2775  0.1615
   44EMI    N02  835   0.900   3.047   2.653  0.2822 -0.2365  0.5087
   44EMI    H0E  836   1.027   3.205   2.723 -0.6159  0.6977  0.2021
   45EMI    C01  837   3.902   5.111   0.250  0.5000 -0.2885  0.8182
   45EMI    C04  838   3.877   4.902   0.224 -0.1630  0.2457  0.5534
   45EMI    C03  839   3.951   4.944   0.125 -0.8819 -0.3087 -0.7485
   45EMI    H07  840   3.903   5.214   0.277  0.2527  0.1863 -0.8266
   45EMI    H09  841   3.835   4.804   0.229 -0.2920  0.3665  3.1269
   45EMI    H08  842   3.989   4.888   0.043 -0.7150  0.0684 -0.9299
   45EMI    C05  843   4.035   5.167   0.046 -0.5973 -0.2141  0.6957
   45EMI    H0B  844   4.049   5.271   0.071 -0.3804  0.4468 -1.8752
   45EMI    H0C  845   4.129   5.127   0.012 -2.1958 -2.0902 -1.9601
   45EMI    H0D  846   3.970   5.180  -0.040  0.9934 -0.6888 -0.6263
   45EMI    N00  847   3.968   5.078   0.139 -0.5302 -0.3513  0.2169
   45EMI    C06  848   3.755   5.023   0.412 -0.7407  0.3129 -0.4376
   45EMI    H0F  849   3.667   5.053   0.356  0.4965  1.4244 -1.8657
   45EMI    C0N  850   3.760   4.885   0.486 -0.3856  0.1216  0.1225
   45EMI    H0O  851   3.861   4.846   0.488  0.2806  1.7923  0.8682
   45EMI    H0P  852   3.711   4.886   0.583 -1.0781 -1.8762 -0.1573
   45EMI    H0Q  853   3.708   4.806   0.433  0.9095 -0.0710 -0.9346
   45EMI    N02  854   3.843   5.015   0.299  0.5115  0.8196 -0.0954
   45EMI    H0E  855   3.800   5.103   0.467 -0.4935  0.4635 -0.8533
   46EMI    C01  856   0.310   0.639   2.981 -0.4352  0.0973  0.6369
   46EMI    C04  857   0.437   0.813   2.996 -0.4230  0.2324  0.7319
   46EMI    C03  858   0.342   0.845   2.907 -0.5994 -0.5474 -0.0080
   46EMI    H07  859   0.275   0.539   2.994  1.7503 -0.8546 -0.2042
   46EMI    H09  860   0.527   0.864   3.023 -1.0838  2.4295 -0.8908
   46EMI    H08  861   0.333   0.930   2.843 -1.8599 -0.3703  0.3901
   46EMI    C05  862   0.161   0.716   2.802 -0.2622  0.3456 -0.0577
   46EMI    H0B  863   0.072   0.761   2.845 -0.8453  0.5776 -1.4434
   46EMI    H0C  864   0.174   0.752   2.701 -2.3620 -1.7410 -1.1901
   46EMI    H0D  865   0.157   0.608   2.790  0.7574  0.3700 -0.7499
   46EMI    N00  866   0.263   0.730   2.895 -0.3178  0.1886 -0.4582
   46EMI    C06  867   0.506   0.604   3.134 -0.5871 -0.2884 -0.1884
   46EMI    H0F  868   0.490   0.500   3.109  0.6887 -0.6781  0.5406
   46EMI    C0N  869   0.661   0.625   3.107  0.9088  0.0725  0.9116
   46EMI    H0O  870   0.684   0.723   3.147  0.9111 -0.0965  1.3310
   46EMI    H0P  871   0.729   0.555   3.154  3.0056  2.1132  1.0903
   46EMI    H0Q  872   0.674   0.629   2.999 -2.0869 -0.2150  0.4500
   46EMI    N02  873   0.419   0.682   3.039  0.1175 -0.4703 -1.0262
   46EMI    H0E  874   0.489   0.634   3.236 -1.4202  2.3043 -1.0165
   47EMI    C01  875   1.575   0.673   4.578  0.0765 -0.3892  0.1493
   47EMI    C04  876   1.676   0.826   4.693  0.7498  1.0834  0.0702
   47EMI    C03  877   1.762   0.777   4.597  0.1277 -0.1590  0.0120
   47EMI    H07  878   1.496   0.605   4.553 -0.2340 -0.9815  2.5059
   47EMI    H09  879   1.700   0.907   4.758 -1.5916  0.2977  2.0360
   47EMI    H08  880   1.862   0.810   4.581 -0.0504  0.0819 -0.6230
   47EMI    C05  881   1.730   0.615   4.406 -0.0796  0.2851  0.4748
   47EMI    H0B  882   1.643   0.581   4.351 -0.0187  2.7905 -1.3488
   47EMI    H0C  883   1.801   0.662   4.339 -0.3802 -0.5711 -0.4787
   47EMI    H0D  884   1.774   0.524   4.444 -1.3951  0.2053  1.9239
   47EMI    N00  885   1.693   0.691   4.520  0.3967 -0.0313 -0.5211
   47EMI    C06  886   1.444   0.768   4.781  0.3316 -0.4180  0.3545
   47EMI    H0F  887   1.389   0.681   4.749  0.8002 -0.1891 -1.1669
   47EMI    C0N  888   1.476   0.753   4.923  0.1593  0.0721  0.7801
   47EMI    H0O  889   1.381   0.727   4.969 -1.5480  0.2536 -2.2806
   47EMI    H0P  890   1.541   0.667   4.931  0.2224  0.0095 -0.2233
   47EMI    H0Q  891   1.533   0.834   4.965 -0.0465 -0.5835  2.3813
   47EMI    N02  892   1.563   0.749   4.686  0.3737 -0.3566 -0.6017
   47EMI    H0E  893   1.393   0.861   4.763  0.5158 -0.3828 -0.0015
   48EMI    C01  894   3.112   1.427   4.987 -0.3947  0.4047 -0.3485
   48EMI    C04  895   3.052   1.398   4.783 -0.6870 -0.6671  0.0029
   48EMI    C03  896   3.068   1.278   4.836  0.0598 -0.2936  0.3009
   48EMI    H07  897   3.137   1.490   5.070  0.7816  0.5650 -0.8000
   48EMI    H09  898   3.025   1.429   4.685  0.7616 -0.0385 -0.2186
   48EMI    H08  899   3.037   1.181   4.805 -1.8754  0.1162  0.8232
   48EMI    C05  900   3.116   1.199   5.073 -0.1469  0.7658  0.1330
   48EMI    H0B  901   3.098   1.251   5.166  0.1488  0.9075  0.1108
   48EMI    H0C  902   3.034   1.131   5.052  0.0033  1.0914 -1.6067
   48EMI    H0D  903   3.216   1.158   5.067 -0.0714  0.8987  0.4571
   48EMI    N00  904   3.097   1.302   4.970 -0.2419  0.3537 -0.0354
   48EMI    C06  905   3.077   1.643   4.865  0.4544  0.4404  0.1794
   48EMI    H0F  906   3.074   1.687   4.964 -0.0836  0.8515 -0.0180
   48EMI    C0N  907   3.198   1.701   4.792  0.2931 -0.0730 -0.6082
   48EMI    H0O  908   3.288   1.647   4.818 -0.4734 -0.2539  1.9347
   48EMI    H0P  909   3.186   1.707   4.685  0.9460 -0.8365 -0.7276
   48EMI    H0Q  910   3.222   1.801   4.827  0.3012 -0.3850  0.3212
   48EMI    N02  911   3.079   1.494   4.877  0.0518  0.5171  0.4597
   48EMI    H0E  912   2.986   1.675   4.817  0.4904  2.1981  1.1771
   49EMI    C01  913   2.255   0.557   4.015  0.1850 -0.2752 -0.3721
   49EMI    C04  914   2.101   0.401   3.984 -0.6438 -0.1033 -0.0062
   49EMI    C03  915   2.142   0.446   3.866  0.4348  0.0596 -0.2994
   49EMI    H07  916   2.306   0.635   4.068  1.1469 -0.7931 -0.5281
   49EMI    H09  917   2.026   0.330   4.012  0.5736 -1.1144  0.8378
   49EMI    H08  918   2.095   0.413   3.776  1.3677 -0.2370 -0.6970
   49EMI    C05  919   2.294   0.641   3.781 -0.4441 -0.5095 -0.6732
   49EMI    H0B  920   2.248   0.611   3.688  2.5264 -4.7822 -1.1106
   49EMI    H0C  921   2.266   0.743   3.803  2.7585  0.3580 -0.1290
   49EMI    H0D  922   2.401   0.646   3.766  0.0051 -1.8898  1.4938
   49EMI    N00  923   2.243   0.544   3.886 -0.2075  0.8143  0.5805
   49EMI    C06  924   2.152   0.476   4.221  0.3385 -0.3785 -0.3462
   49EMI    H0F  925   2.193   0.570   4.255 -2.0016  0.5117  0.2474
   49EMI    C0N  926   2.013   0.471   4.281  0.3837 -0.6741  0.0751
   49EMI    H0O  927   2.031   0.506   4.382  0.5140 -1.5624  0.3714
   49EMI    H0P  928   1.950   0.530   4.215 -0.8486 -1.0931  0.8677
   49EMI    H0Q  929   1.968   0.373   4.284 -0.9047 -0.0758  1.4772
   49EMI    N02  930   2.172   0.473   4.078  0.2106 -0.3589  0.0550
   49EMI    H0E  931   2.218   0.398   4.258 -0.3499 -1.3926 -1.1934
   50EMI    C01  932   1.901   0.360   0.431 -0.2884 -0.2926  0.3141
   50EMI    C04  933   1.893   0.583   0.410 -0.0007 -0.0991 -0.1856
   50EMI    C03  934   1.770   0.536   0.405 -0.3715  0.7254  0.3733
   50EMI    H07  935   1.931   0.259   0.449 -0.8654 -0.4522  0.3929
   50EMI    H09  936   1.934   0.680   0.392  1.2739 -0.9695 -2.3177
   50EMI    H08  937   1.676   0.585   0.398 -0.0861  1.7363  2.6017
   50EMI    C05  938   1.652   0.310   0.400  0.3638 -0.1165  0.8286
   50EMI    H0B  939   1.620   0.296   0.298  0.7661  0.1604  0.6627
   50EMI    H0C  940   1.678   0.214   0.442  1.0457 -1.0492 -1.5683
   50EMI    H0D  941   1.565   0.350   0.450  0.2146 -0.0553  0.5236
   50EMI    N00  942   1.777   0.398   0.416  0.8354 -0.1308  0.0013
   50EMI    C06  943   2.127   0.486   0.417 -0.0552  0.0041  0.4370
   50EMI    H0F  944   2.174   0.506   0.322  0.4275  1.9218  1.0488
   50EMI    C0N  945   2.187   0.578   0.531 -0.1878  0.0390 -0.4448
   50EMI    H0O  946   2.111   0.576   0.608  0.6923 -1.6625  0.4489
   50EMI    H0P  947   2.280   0.559   0.583  1.0775  2.3033 -1.7105
   50EMI    H0Q  948   2.192   0.679   0.493 -0.7645 -1.2062 -4.2974
   50EMI    N02  949   1.979   0.472   0.424 -0.0954 -0.1913  0.3687
   50EMI    H0E  950   2.175   0.391   0.437  0.7870  0.1883 -0.6386
   51EMI    C01  951   2.067   2.597   2.868  0.6065 -0.3241 -0.1021
   51EMI    C04  952   2.084   2.473   3.044 -0.0363  0.1165  0.1160
   51EMI    C03  953   2.199   2.539   3.033 -0.6198  0.5894 -0.1037
   51EMI    H07  954   2.014   2.642   2.787 -1.3315 -0.8393  0.8393
   51EMI    H09  955   2.051   2.407   3.121 -0.2089  0.8520  0.6888
   51EMI    H08  956   2.282   2.531   3.100 -1.8210 -0.2379  1.3603
   51EMI    C05  957   2.266   2.746   2.915 -0.5447  0.3955  0.0186
   51EMI    H0B  958   2.306   2.773   3.012  2.2865  0.9803 -1.2140
   51EMI    H0C  959   2.355   2.730   2.855 -0.6990  4.3368 -1.5061
   51EMI    H0D  960   2.212   2.823   2.863 -1.5640 -1.2039 -1.3788
   51EMI    N00  961   2.188   2.623   2.926 -0.3111 -0.0564 -0.6445
   51EMI    C06  962   1.866   2.448   2.908 -0.1675  0.2571  0.2865
   51EMI    H0F  963   1.821   2.410   2.998  1.0377  1.6469  1.5452
   51EMI    C0N  964   1.771   2.547   2.846 -0.3457 -0.1261  0.9823
   51EMI    H0O  965   1.802   2.650   2.861 -0.7389 -0.0576  1.3211
   51EMI    H0P  966   1.758   2.526   2.740  1.4654 -1.4475  0.9572
   51EMI    H0Q  967   1.675   2.537   2.894 -1.4156 -0.1567 -1.0649
   51EMI    N02  968   2.004   2.495   2.933  0.0463 -0.5383 -0.3909
   51EMI    H0E  969   1.876   2.365   2.840  0.0037 -0.2435  0.9182
   52EMI    C01  970   0.641   1.025   5.091 -0.3659  0.8456 -0.2265
   52EMI    C04  971   0.536   1.197   4.990  0.2261  0.4444 -0.1030
   52EMI    C03  972   0.604   1.244   5.096 -0.1872  0.1788 -0.3315
   52EMI    H07  973   0.684   0.930   5.112 -1.0721  0.8853  1.5475
   52EMI    H09  974   0.474   1.240   4.915 -0.3885  1.4259  0.9427
   52EMI    H08  975   0.621   1.342   5.136  2.1794  0.0930 -0.9665
   52EMI    C05  976   0.748   1.153   5.283  0.4607  0.2622  0.0241
   52EMI    H0B  977   0.847   1.128   5.247  0.8369  1.0114  0.5092
   52EMI    H0C  978   0.755   1.260   5.296  0.3338  0.6890 -2.7594
   52EMI    H0D  979   0.699   1.093   5.358 -0.0490  0.7132  0.0625
   52EMI    N00  980   0.666   1.135   5.156 -0.3980  0.2952  0.6408
   52EMI    C06  981   0.506   0.950   4.900  0.1102  0.1184 -0.2847
   52EMI    H0F  982   0.578   0.911   4.830  2.8676  1.6201  1.5041
   52EMI    C0N  983   0.435   0.849   4.990  0.2953  0.3233  0.1486
   52EMI    H0O  984   0.506   0.786   5.043  0.5905 -0.7516 -1.4768
   52EMI    H0P  985   0.384   0.912   5.062  0.4609 -0.2267  0.7534
   52EMI    H0Q  986   0.367   0.784   4.937  1.6977 -0.2409 -1.0471
   52EMI    N02  987   0.567   1.056   4.987  0.0231  0.3639 -0.2742
   52EMI    H0E  988   0.436   0.997   4.833  2.8892  2.1793 -1.9395
   53EMI    C01  989   1.137   4.298   0.747  0.3777  0.1908 -0.4467
   53EMI    C04  990   1.245   4.241   0.924 -0.3211  0.3679  0.0781
   53EMI    C03  991   1.120   4.189   0.938  0.2508 -0.2017  0.0222
   53EMI    H07  992   1.109   4.346   0.655 -1.2247  1.7789  0.7934
   53EMI    H09  993   1.329   4.246   0.988  0.5963 -1.0897 -0.9316
   53EMI    H08  994   1.072   4.137   1.018 -1.2480 -0.2302 -0.8512
   53EMI    C05  995   0.919   4.179   0.773  0.3159  0.2923  0.0736
   53EMI    H0B  996   0.897   4.238   0.686  1.5775 -0.2484 -0.6472
   53EMI    H0C  997   0.913   4.076   0.740  1.9840  0.6218 -1.4367
   53EMI    H0D  998   0.852   4.190   0.857 -1.8381  3.2354 -1.8412
   53EMI    N00  999   1.055   4.220   0.816  0.2440  0.7572 -0.1788
   53EMI    C06 1000   1.366   4.373   0.733  0.3837  0.0161 -0.1844
   53EMI    H0F 1001   1.400   4.462   0.784  0.5493 -1.7845  3.1609
   53EMI    C0N 1002   1.473   4.267   0.721 -0.5808  0.0753  0.3652
   53EMI    H0O 1003   1.527   4.279   0.628 -0.4182  2.4506  0.7161
   53EMI    H0P 1004   1.549   4.252   0.796 -2.5771 -1.5061  2.2203
   53EMI    H0Q 1005   1.407   4.181   0.718 -1.8754  1.0261  0.7200
   53EMI    N02 1006   1.253   4.309   0.802  0.2692  0.4289 -0.0165
   53EMI    H0E 1007   1.345   4.404   0.632 -0.7368 -0.8303 -0.2348
   54EMI    C01 1008   3.072   0.505   3.224 -0.5394 -0.1741  0.0187
   54EMI    C04 1009   3.234   0.457   3.358 -0.3296 -0.6834  0.1318
   54EMI    C03 1010   3.148   0.524   3.425 -0.1458  0.3400  0.0706
   54EMI    H07 1011   3.003   0.502   3.143 -0.8146 -0.0622  0.2468
   54EMI    H09 1012   3.327   0.415   3.389  0.2444 -0.1027 -0.7479
   54EMI    H08 1013   3.156   0.559   3.525  0.7965 -0.2890  0.2288
   54EMI    C05 1014   2.918   0.615   3.375  0.3641  0.1080 -0.0420
   54EMI    H0B 1015   2.937   0.702   3.437  0.5213 -0.1937  0.3359
   54EMI    H0C 1016   2.876   0.651   3.282  1.8246 -0.5653 -0.9859
   54EMI    H0D 1017   2.868   0.547   3.442  1.9391  1.4677  2.6565
   54EMI    N00 1018   3.041   0.548   3.341 -0.3691 -0.1589  0.2885
   54EMI    C06 1019   3.234   0.340   3.133 -0.4587 -0.6560 -0.0497
   54EMI    H0F 1020   3.186   0.368   3.041  0.1640 -0.0027 -0.1835
   54EMI    C0N 1021   3.375   0.365   3.112  0.3857 -0.3407  0.0983
   54EMI    H0O 1022   3.397   0.471   3.109  0.3333 -0.2934  1.1400
   54EMI    H0P 1023   3.432   0.335   3.199  0.8584 -1.4662 -0.5762
   54EMI    H0Q 1024   3.409   0.302   3.030  0.1325 -1.7527  1.0291
   54EMI    N02 1025   3.185   0.433   3.235 -0.3203 -0.4925  0.2852
   54EMI    H0E 1026   3.216   0.240   3.170 -0.1974 -1.1207 -1.1564
   55EMI    C01 1027   4.241   4.710   3.884 -0.3830 -0.1939 -0.0594
   55EMI    C04 1028   4.354   4.530   3.832 -0.6688  0.2321 -0.1102
   55EMI    C03 1029   4.385   4.569   3.956 -0.6868 -0.6044 -0.2981
   55EMI    H07 1030   4.180   4.796   3.867 -0.1971 -0.4519 -2.3807
   55EMI    H09 1031   4.391   4.448   3.774  0.3919  0.5524  0.0931
   55EMI    H08 1032   4.457   4.524   4.022 -0.4574 -1.3802 -1.0609
   55EMI    C05 1033   4.324   4.751   4.115 -0.0807  0.4138 -0.1440
   55EMI    H0B 1034   4.281   4.847   4.091  0.2273  0.4625 -0.5214
   55EMI    H0C 1035   4.272   4.698   4.192 -0.9879  0.7281 -0.5266
   55EMI    H0D 1036   4.430   4.768   4.126  0.5276 -1.1648 -2.6133
   55EMI    N00 1037   4.317   4.679   3.985 -0.5230 -0.1494  0.2095
   55EMI    C06 1038   4.209   4.622   3.652 -0.8237 -0.0520  0.3978
   55EMI    H0F 1039   4.135   4.546   3.629 -2.0426  1.5786 -1.4416
   55EMI    C0N 1040   4.183   4.753   3.584 -0.1730 -0.6513  0.2079
   55EMI    H0O 1041   4.078   4.776   3.602  0.5774  1.9663  1.7062
   55EMI    H0P 1042   4.247   4.833   3.617  0.8420 -0.7068 -1.5323
   55EMI    H0Q 1043   4.193   4.734   3.478  2.8819 -1.5747  0.5842
   55EMI    N02 1044   4.257   4.614   3.791  0.3809  0.2533 -0.3997
   55EMI    H0E 1045   4.300   4.595   3.602  0.7947  3.6800  1.0508
   56EMI    C01 1046   3.649   3.725   3.820 -1.1790 -0.1752  0.0065
   56EMI    C04 1047   3.805   3.841   3.716 -0.3676  0.2664 -0.2603
   56EMI    C03 1048   3.839   3.842   3.844  0.0741 -0.2484 -0.6929
   56EMI    H07 1049   3.572   3.655   3.844  1.3944 -2.9298  0.8090
   56EMI    H09 1050   3.851   3.900   3.640  0.2916  1.1446  0.7764
   56EMI    H08 1051   3.916   3.895   3.896  0.4487 -2.3275  0.9992
   56EMI    C05 1052   3.716   3.767   4.050 -0.6833 -0.6270 -0.0374
   56EMI    H0B 1053   3.701   3.664   4.080  0.5831 -1.1056 -0.9668
   56EMI    H0C 1054   3.799   3.815   4.099 -0.1703 -0.8897 -0.6346
   56EMI    H0D 1055   3.629   3.827   4.074  1.2487  2.7364 -0.8112
   56EMI    N00 1056   3.738   3.770   3.909  0.4221  0.1227  0.0151
   56EMI    C06 1057   3.654   3.712   3.563 -0.3052 -0.6197 -0.1697
   56EMI    H0F 1058   3.557   3.666   3.558 -0.0154 -1.2537 -0.0663
   56EMI    C0N 1059   3.619   3.827   3.463  0.5639  0.6788 -0.6481
   56EMI    H0O 1060   3.540   3.891   3.499  2.0800  2.6861 -0.7612
   56EMI    H0P 1061   3.710   3.882   3.446  1.9458 -1.4693 -0.6339
   56EMI    H0Q 1062   3.580   3.784   3.371  0.3681  0.2267 -0.3580
   56EMI    N02 1063   3.696   3.760   3.699  0.5850  0.2616  0.4739
   56EMI    H0E 1064   3.724   3.637   3.530  1.5666  2.2280 -3.2948
   57EMI    C01 1065   4.325   1.312   2.983 -0.3495  0.2951  0.6990
   57EMI    C04 1066   4.392   1.228   3.173 -0.5888 -0.2096 -0.1182
   57EMI    C03 1067   4.491   1.307   3.125 -0.0531  0.0754  0.5569
   57EMI    H07 1068   4.270   1.334   2.894 -0.0090  3.1047  1.0911
   57EMI    H09 1069   4.392   1.173   3.264 -1.8154 -0.3740 -0.1899
   57EMI    H08 1070   4.584   1.344   3.165  1.2048 -0.4080 -1.7467
   57EMI    C05 1071   4.524   1.437   2.915 -0.3634 -0.0367  0.0274
   57EMI    H0B 1072   4.465   1.466   2.829 -1.1465 -1.4859  0.0493
   57EMI    H0C 1073   4.549   1.526   2.971  0.6294  0.3671 -1.0100
   57EMI    H0D 1074   4.622   1.397   2.892  1.7855  2.7588  3.2245
   57EMI    N00 1075   4.449   1.351   3.000  0.0191 -0.1868 -0.5771
   57EMI    C06 1076   4.153   1.184   3.111  0.2233 -0.6211  0.4300
   57EMI    H0F 1077   4.092   1.222   3.030 -1.5150  0.9065  2.3631
   57EMI    C0N 1078   4.152   1.035   3.124  0.0969 -0.5736 -0.4784
   57EMI    H0O 1079   4.054   0.990   3.136 -0.6872  0.9195 -1.0658
   57EMI    H0P 1080   4.204   1.001   3.035  0.3478  1.5988 -1.2276
   57EMI    H0Q 1081   4.202   0.991   3.210 -1.2104 -0.8951  0.1539
   57EMI    N02 1082   4.286   1.242   3.089 -0.0231 -0.2122  0.4139
   57EMI    H0E 1083   4.108   1.247   3.186  1.6969 -0.0250  0.8605
   58EMI    C01 1084   0.313   4.902   3.551 -0.5886  0.1590 -0.0754
   58EMI    C04 1085   0.349   5.041   3.384 -0.5542  0.1180 -0.9555
   58EMI    C03 1086   0.284   4.939   3.338 -0.0246  0.1469 -0.2952
   58EMI    H07 1087   0.295   4.871   3.652 -1.6801 -0.2225 -0.3738
   58EMI    H09 1088   0.386   5.125   3.329  2.5855 -0.2722  0.3460
   58EMI    H08 1089   0.248   4.929   3.238  0.8000  1.0008 -0.6862
   58EMI    C05 1090   0.187   4.722   3.430  0.4559  0.7778  0.0936
   58EMI    H0B 1091   0.127   4.689   3.513  2.5604 -0.9957  0.9878
   58EMI    H0C 1092   0.117   4.734   3.348 -0.7072 -0.3263  0.8853
   58EMI    H0D 1093   0.252   4.637   3.418  1.0603  0.8953  2.1581
   58EMI    N00 1094   0.258   4.853   3.443 -0.0001  0.3068  0.1301
   58EMI    C06 1095   0.431   5.102   3.626 -0.3221 -0.2439  0.0866
   58EMI    H0F 1096   0.430   5.045   3.718 -1.0203  0.9604  0.8598
   58EMI    C0N 1097   0.574   5.140   3.588 -0.3136 -0.2757 -0.1855
   58EMI    H0O 1098   0.650   5.065   3.574  0.6002  0.6116 -0.0531
   58EMI    H0P 1099   0.572   5.202   3.499 -1.2751  1.6411  1.0877
   58EMI    H0Q 1100   0.608   5.206   3.667 -0.9856  0.0901 -0.1890
   58EMI    N02 1101   0.366   5.018   3.524  0.0575 -0.2721  0.1530
   58EMI    H0E 1102   0.364   5.186   3.632  0.7997  0.7320 -0.6144
   59EMI    C01 1103   3.215   0.875   0.322  0.0766  0.1427  0.0806
   59EMI    C04 1104   3.418   0.818   0.359 -0.2006 -0.2855 -0.0900
   59EMI    C03 1105   3.416   0.951   0.344  0.5923 -0.3867  0.0699
   59EMI    H07 1106   3.111   0.860   0.302  0.1029  0.9155 -0.6963
   59EMI    H09 1107   3.499   0.755   0.385 -0.1959 -0.6673 -1.0018
   59EMI    H08 1108   3.501   1.016   0.344 -1.2596  2.2060 -0.1717
   59EMI    C05 1109   3.236   1.118   0.257 -0.5024 -0.3111  0.3362
   59EMI    H0B 1110   3.239   1.202   0.325  1.2141  0.8502 -1.0505
   59EMI    H0C 1111   3.281   1.147   0.163 -1.7925  2.0352  0.3682
   59EMI    H0D 1112   3.136   1.110   0.219  0.0914 -2.0435 -1.0089
   59EMI    N00 1113   3.285   0.988   0.304  0.6332 -0.2626 -0.4200
   59EMI    C06 1114   3.242   0.640   0.343  0.6379  0.7108 -0.5102
   59EMI    H0F 1115   3.153   0.628   0.284 -0.0142 -0.2354  0.6218
   59EMI    C0N 1116   3.332   0.562   0.255 -0.1093  0.0046 -0.3809
   59EMI    H0O 1117   3.340   0.601   0.154 -1.0816 -2.6391 -1.5759
   59EMI    H0P 1118   3.432   0.545   0.295 -0.2597  0.0732  0.0281
   59EMI    H0Q 1119   3.292   0.465   0.227  0.4192 -0.5925  0.8572
   59EMI    N02 1120   3.286   0.774   0.352 -0.4790 -0.0578 -0.7176
   59EMI    H0E 1121   3.224   0.598   0.441  0.3443 -0.8576 -1.2090
   60EMI    C01 1122   0.685   0.005   2.778 -0.2221  0.0987 -0.1926
   60EMI    C04 1123   0.872  -0.018   2.894  0.3314  0.2260  0.3871
   60EMI    C03 1124   0.864  -0.119   2.803  0.1257 -0.3510 -0.4678
   60EMI    H07 1125   0.595   0.050   2.741 -0.1218  1.0668  0.7164
   60EMI    H09 1126   0.944   0.007   2.969  2.5933 -1.0142 -1.2229
   60EMI    H08 1127   0.934  -0.196   2.776 -0.6664 -1.1423 -0.3117
   60EMI    C05 1128   0.712  -0.175   2.608  0.1100 -0.0993 -0.0413
   60EMI    H0B 1129   0.807  -0.174   2.556  1.3654 -0.4455  2.1085
   60EMI    H0C 1130   0.686  -0.276   2.634 -1.9265  0.6473  1.0262
   60EMI    H0D 1131   0.629  -0.134   2.553  0.9056  0.9516 -0.4970
   60EMI    N00 1132   0.748  -0.100   2.732  0.2592  0.0495  0.2255
   60EMI    C06 1133   0.742   0.196   2.939  0.6669  0.2633  0.3779
   60EMI    H0F 1134   0.681   0.242   2.863 -0.3246 -1.5652  0.0216
   60EMI    C0N 1135   0.688   0.195   3.078  0.2305  0.3666  0.0754
   60EMI    H0O 1136   0.762   0.200   3.157 -1.1185  1.7370  1.3130
   60EMI    H0P 1137   0.650   0.292   3.107  2.4365  0.4564  3.2628
   60EMI    H0Q 1138   0.608   0.123   3.088  0.1807  0.4755  0.4722
   60EMI    N02 1139   0.761   0.064   2.875  0.0292  0.2952 -0.5956
   60EMI    H0E 1140   0.819   0.271   2.927  0.4141  0.6669  1.1914
   61EMI    C01 1141   1.707   0.465   0.052 -0.0957  1.3113 -0.4350
   61EMI    C04 1142   1.926   0.459   0.020 -0.9090  0.2527 -0.0321
   61EMI    C03 1143   1.874   0.335   0.004  0.2444 -0.4569  0.4199
   61EMI    H07 1144   1.608   0.506   0.061 -0.9611 -0.7709 -0.0389
   61EMI    H09 1145   2.026   0.495   0.009 -0.6633 -0.3609  0.1587
   61EMI    H08 1146   1.919   0.245  -0.032  1.0838  0.6487 -1.4355
   61EMI    C05 1147   1.649   0.227   0.003  0.4311  0.1735  1.0233
   61EMI    H0B 1148   1.669   0.195  -0.098  0.6296  0.4608  0.9677
   61EMI    H0C 1149   1.664   0.152   0.078 -1.0280  0.5128  1.6904
   61EMI    H0D 1150   1.547   0.263   0.005  0.0446 -0.8984  1.2930
   61EMI    N00 1151   1.738   0.339   0.025 -0.4658  0.2381 -0.1360
   61EMI    C06 1152   1.826   0.686   0.077  0.8199  0.3561  0.4826
   61EMI    H0F 1153   1.901   0.711   0.151 -0.1164  0.8183  1.3030
   61EMI    C0N 1154   1.839   0.760  -0.051 -0.5012 -0.0879  0.4719
   61EMI    H0O 1155   1.819   0.864  -0.026  1.0878  0.5771 -0.8570
   61EMI    H0P 1156   1.943   0.760  -0.082 -0.3679  0.9971  0.8930
   61EMI    H0Q 1157   1.775   0.716  -0.127  0.5699 -3.2754  1.2752
   61EMI    N02 1158   1.818   0.536   0.054  0.5940 -0.3161  0.4293
   61EMI    H0E 1159   1.730   0.706   0.123 -0.6969 -1.9955 -1.4030
   62EMI    C01 1160   4.114   2.080   1.471  0.7938 -0.2214  0.2610
   62EMI    C04 1161   4.226   1.942   1.348  0.0687 -0.1581 -0.0446
   62EMI    C03 1162   4.243   2.068   1.296 -0.2380  0.7382  0.6190
   62EMI    H07 1163   4.050   2.118   1.547 -0.1936 -0.4146 -0.4538
   62EMI    H09 1164   4.247   1.840   1.323 -0.3203 -0.2984  0.1922
   62EMI    H08 1165   4.285   2.094   1.201 -0.7680 -3.9897 -1.1978
   62EMI    C05 1166   4.158   2.300   1.369 -0.4755  0.1747  0.4652
   62EMI    H0B 1167   4.252   2.337   1.332  0.9407 -1.9879  1.6778
   62EMI    H0C 1168   4.072   2.337   1.315 -1.0714 -1.1058  0.4827
   62EMI    H0D 1169   4.135   2.340   1.467 -2.6881 -1.5143  0.7433
   62EMI    N00 1170   4.172   2.153   1.376 -0.1050 -0.3702  0.0973
   62EMI    C06 1171   4.097   1.850   1.558  0.1921  0.7508  0.2580
   62EMI    H0F 1172   4.036   1.892   1.636 -2.4225 -1.9035 -0.1767
   62EMI    C0N 1173   4.026   1.738   1.483 -0.6928 -0.1471 -0.0821
   62EMI    H0O 1174   4.064   1.728   1.382 -0.6864  2.0456 -0.3451
   62EMI    H0P 1175   4.048   1.647   1.536 -0.3183  0.5870  1.0590
   62EMI    H0Q 1176   3.918   1.750   1.486 -1.0518 -2.6358  4.0160
   62EMI    N02 1177   4.150   1.957   1.463  0.0018  0.1320  0.0647
   62EMI    H0E 1178   4.188   1.809   1.601 -0.6375  0.0458  1.4006
   63EMI    C01 1179   1.895   3.943   3.103  0.0840  0.8437 -0.2353
   63EMI    C04 1180   1.916   4.145   3.027  0.1918 -0.2880 -0.6657
   63EMI    C03 1181   1.785   4.121   3.038 -0.1239  0.1287 -0.1873
   63EMI    H07 1182   1.906   3.841   3.133 -1.3224  0.7514  0.0455
   63EMI    H09 1183   1.969   4.231   2.994 -1.5963  0.7225 -1.0197
   63EMI    H08 1184   1.702   4.186   3.018 -0.3883 -0.3748 -0.7468
   63EMI    C05 1185   1.654   3.923   3.117  0.3366 -0.6805  0.2945
   63EMI    H0B 1186   1.631   3.919   3.222 -2.0380  1.5560 -0.0401
   63EMI    H0C 1187   1.565   3.963   3.069  1.3206  0.1315 -0.9289
   63EMI    H0D 1188   1.680   3.821   3.090  1.1705 -0.9519  1.9912
   63EMI    N00 1189   1.774   3.995   3.089  0.6327 -0.1744 -0.2093
   63EMI    C06 1190   2.129   4.011   3.066 -0.6172 -0.4842  0.5219
   63EMI    H0F 1191   2.171   3.996   2.967  1.9177 -1.0030  1.5870
   63EMI    C0N 1192   2.198   4.125   3.133  0.0431 -0.1843  0.4697
   63EMI    H0O 1193   2.164   4.137   3.236  0.3081 -0.5349  0.5994
   63EMI    H0P 1194   2.304   4.104   3.143  0.5844  1.0821 -1.9385
   63EMI    H0Q 1195   2.182   4.219   3.082 -0.9500  0.6563  2.2179
   63EMI    N02 1196   1.985   4.031   3.067  0.4961  0.0017 -0.1632
   63EMI    H0E 1197   2.149   3.920   3.120  2.6089 -0.2871 -0.1113
   64EMI    C01 1198   2.698   0.219   1.707 -0.2117  0.2021 -0.1458
   64EMI    C04 1199   2.526   0.145   1.817 -0.3005 -0.5144 -0.3273
   64EMI    C03 1200   2.558   0.262   1.868  0.2011 -0.5891 -0.3889
   64EMI    H07 1201   2.793   0.219   1.658  1.0732  0.8244  2.1566
   64EMI    H09 1202   2.446   0.080   1.846 -0.9282 -0.1021 -1.1294
   64EMI    H08 1203   2.518   0.312   1.953 -0.5264 -1.5978 -0.1206
   64EMI    C05 1204   2.754   0.425   1.834  0.5468  0.0341 -0.1154
   64EMI    H0B 1205   2.810   0.415   1.925 -0.7790 -0.5720  0.6606
   64EMI    H0C 1206   2.827   0.430   1.754 -0.0955  0.2986 -0.7075
   64EMI    H0D 1207   2.709   0.524   1.835  2.4256  1.0416  4.3273
   64EMI    N00 1208   2.669   0.311   1.797  0.1895  0.0486 -0.1144
   64EMI    C06 1209   2.600   0.001   1.628  0.1260  0.5537  0.4215
   64EMI    H0F 1210   2.495  -0.009   1.604 -0.5164  2.0333  2.4246
   64EMI    C0N 1211   2.664   0.009   1.492  0.1876 -0.0902  0.0485
   64EMI    H0O 1212   2.605   0.079   1.433 -2.5583 -2.5198 -0.2970
   64EMI    H0P 1213   2.768   0.041   1.500 -0.1609  0.8758  1.0453
   64EMI    H0Q 1214   2.654  -0.081   1.432 -1.7416  0.9800 -1.3541
   64EMI    N02 1215   2.620   0.116   1.719  0.0954  0.1787 -0.3166
   64EMI    H0E 1216   2.632  -0.090   1.677  0.3472 -0.8976 -2.1902
   65EMI    C01 1217   0.371   1.973   1.551 -0.9607  0.0493  0.0858
   65EMI    C04 1218   0.331   2.185   1.502 -1.1869 -0.3272  0.4390
   65EMI    C03 1219   0.235   2.114   1.454  0.2068  1.2725 -0.0250
   65EMI    H07 1220   0.423   1.887   1.588  1.9865  0.7512 -2.0313
   65EMI    H09 1221   0.349   2.290   1.501 -2.3799 -0.1065  0.7005
   65EMI    H08 1222   0.147   2.144   1.401 -1.4574  1.5064  2.6782
   65EMI    C05 1223   0.197   1.862   1.431 -0.2348 -0.0454  0.4510
   65EMI    H0B 1224   0.248   1.770   1.454  0.6743  0.2987 -0.1597
   65EMI    H0C 1225   0.095   1.861   1.466  0.2512  0.7679  1.9752
   65EMI    H0D 1226   0.192   1.881   1.325  0.9510 -0.3306  0.3284
   65EMI    N00 1227   0.262   1.978   1.481  0.3520  0.0848  0.4621
   65EMI    C06 1228   0.529   2.135   1.655  0.2627  0.1578 -0.1771
   65EMI    H0F 1229   0.535   2.052   1.724 -0.4259  0.8385  0.7301
   65EMI    C0N 1230   0.650   2.157   1.574 -0.7349 -0.8523  0.2066
   65EMI    H0O 1231   0.695   2.254   1.591 -2.1050 -0.2407  0.4498
   65EMI    H0P 1232   0.715   2.077   1.608 -2.7949 -1.6172  2.6231
   65EMI    H0Q 1233   0.621   2.171   1.471  1.0537  0.6600 -0.1575
   65EMI    N02 1234   0.413   2.099   1.572 -0.7268  0.3418 -0.1475
   65EMI    H0E 1235   0.508   2.223   1.714 -1.5075 -0.1649 -0.2829
   66EMI    C01 1236   2.593   1.694   1.686 -0.6221  0.2903 -0.5170
   66EMI    C04 1237   2.507   1.783   1.864 -0.6244  0.1218  0.2088
   66EMI    C03 1238   2.404   1.758   1.781 -0.2211  0.5786  0.3015
   66EMI    H07 1239   2.662   1.639   1.626  0.4355  1.5380 -0.4846
   66EMI    H09 1240   2.514   1.825   1.962  1.0932  0.4565 -0.0350
   66EMI    H08 1241   2.298   1.767   1.784 -0.5255 -2.2489  1.7052
   66EMI    C05 1242   2.392   1.641   1.551  0.6116 -0.3778 -0.3900
   66EMI    H0B 1243   2.295   1.689   1.548  1.7418  2.0111 -2.8307
   66EMI    H0C 1244   2.457   1.653   1.465  1.4135 -0.9094  0.1302
   66EMI    H0D 1245   2.376   1.534   1.554  2.0782 -0.6245 -0.5521
   66EMI    N00 1246   2.463   1.695   1.670 -0.5316  0.0705  0.0485
   66EMI    C06 1247   2.752   1.725   1.877  0.5946 -0.2531  0.0636
   66EMI    H0F 1248   2.806   1.639   1.838  1.0474 -0.6263  1.4736
   66EMI    C0N 1249   2.836   1.848   1.875  0.0359 -0.3126 -0.1457
   66EMI    H0O 1250   2.793   1.929   1.932 -1.3284 -0.8637 -0.3417
   66EMI    H0P 1251   2.934   1.834   1.919 -0.5300 -0.7802  1.0258
   66EMI    H0Q 1252   2.846   1.876   1.771  0.3190 -1.6806 -0.5120
   66EMI    N02 1253   2.623   1.735   1.809 -0.2138 -0.5865 -0.5388
   66EMI    H0E 1254   2.732   1.688   1.976  0.4164  0.0485  0.1382
   67EMI    C01 1255   2.007   4.851   2.161 -0.2989  0.0294 -0.3499
   67EMI    C04 1256   2.050   4.670   2.057 -0.6563 -0.3866 -0.3705
   67EMI    C03 1257   1.977   4.746   1.973  0.0967  0.1610  0.5817
   67EMI    H07 1258   2.006   4.925   2.239 -1.2552  2.3332 -2.4064
   67EMI    H09 1259   2.083   4.569   2.059 -0.0965 -0.2253  2.2689
   67EMI    H08 1260   1.923   4.727   1.882 -0.8732 -0.1944  1.2128
   67EMI    C05 1261   1.862   4.966   1.996  0.3458 -0.1710  0.0748
   67EMI    H0B 1262   1.810   5.007   2.081  0.5617 -1.5773  0.9131
   67EMI    H0C 1263   1.921   5.042   1.946  0.3335 -1.0047 -1.2332
   67EMI    H0D 1264   1.785   4.937   1.926  0.1197 -1.5340  0.8500
   67EMI    N00 1265   1.947   4.859   2.046  0.3089 -0.0877 -0.2380
   67EMI    C06 1266   2.121   4.673   2.302 -0.6217 -0.0539  0.8642
   67EMI    H0F 1267   2.137   4.761   2.363 -0.3991  1.4795 -1.3035
   67EMI    C0N 1268   2.033   4.573   2.364  0.3993 -0.2229 -0.0760
   67EMI    H0O 1269   2.078   4.500   2.431 -1.2981 -0.0167  1.3683
   67EMI    H0P 1270   1.956   4.623   2.422  0.6466 -1.2947  1.2361
   67EMI    H0Q 1271   1.988   4.523   2.279  1.0944 -0.8195 -0.1017
   67EMI    N02 1272   2.066   4.738   2.177 -0.1612  0.1755  0.0354
   67EMI    H0E 1273   2.219   4.641   2.269 -0.2493  1.3900  0.4672
   68EMI    C01 1274   3.884   1.308   0.504 -0.8884  0.3388 -0.8154
   68EMI    C04 1275   3.915   1.171   0.338 -0.2747 -0.2033  0.0865
   68EMI    C03 1276   3.996   1.135   0.434  0.1191 -0.3818 -1.0982
   68EMI    H07 1277   3.839   1.389   0.558  2.0778  2.3442 -1.1367
   68EMI    H09 1278   3.905   1.122   0.244  2.1277  0.5472 -0.6300
   68EMI    H08 1279   4.061   1.051   0.436 -0.0527 -0.5119  0.9723
   68EMI    C05 1280   4.056   1.225   0.666 -1.3939 -0.1502 -0.0047
   68EMI    H0B 1281   4.007   1.154   0.732 -0.0172  0.8987  2.2990
   68EMI    H0C 1282   4.154   1.188   0.641 -2.2398 -1.0098 -2.3351
   68EMI    H0D 1283   4.067   1.323   0.710  0.7109 -0.1572 -0.4372
   68EMI    N00 1284   3.986   1.233   0.533 -0.0410  0.0964 -0.0466
   68EMI    C06 1285   3.744   1.359   0.306 -0.5660  0.1239  0.1195
   68EMI    H0F 1286   3.779   1.439   0.243  3.1539 -1.7030 -0.4153
   68EMI    C0N 1287   3.654   1.261   0.230  0.2553 -0.4323 -0.1085
   68EMI    H0O 1288   3.559   1.310   0.220  0.9840  1.2102  0.6972
   68EMI    H0P 1289   3.682   1.228   0.131 -0.1695  2.4305 -1.2665
   68EMI    H0Q 1290   3.628   1.182   0.300  0.2798  0.6980  1.2173
   68EMI    N02 1291   3.852   1.288   0.378  0.1972 -0.1470  0.3895
   68EMI    H0E 1292   3.683   1.402   0.384  1.3832  1.9903  0.6918
   69EMI    C01 1293   3.563   4.465   0.788 -0.0790  0.7157 -0.6822
   69EMI    C04 1294   3.777   4.460   0.822  0.2115 -0.6074 -0.2008
   69EMI    C03 1295   3.751   4.378   0.722  0.0286 -0.4784 -0.0197
   69EMI    H07 1296   3.461   4.496   0.789  0.1473  1.4522  0.4130
   69EMI    H09 1297   3.870   4.491   0.864 -0.3465  0.2507  0.4237
   69EMI    H08 1298   3.823   4.325   0.663  0.2359 -0.7193  0.4491
   69EMI    C05 1299   3.548   4.323   0.589  0.2349 -0.7068 -0.1415
   69EMI    H0B 1300   3.610   4.256   0.531 -0.4349 -0.2544 -1.4052
   69EMI    H0C 1301   3.467   4.279   0.645 -0.2458  0.7552  0.3488
   69EMI    H0D 1302   3.521   4.402   0.521  1.0481  2.1396  2.6104
   69EMI    N00 1303   3.618   4.386   0.699  0.0127 -0.0449 -0.3459
   69EMI    C06 1304   3.633   4.603   0.977 -0.2673 -0.4133 -0.4404
   69EMI    H0F 1305   3.672   4.558   1.067 -1.1611 -3.1693 -1.3542
   69EMI    C0N 1306   3.686   4.749   0.952 -0.6777 -0.6365 -0.1964
   69EMI    H0O 1307   3.619   4.809   0.892 -0.2850 -1.0320 -1.0487
   69EMI    H0P 1308   3.681   4.802   1.047  1.1321  0.8578 -0.8555
   69EMI    H0Q 1309   3.794   4.747   0.939 -0.1608 -0.2515  3.0546
   69EMI    N02 1310   3.659   4.506   0.867 -0.1767 -0.1303  0.5353
   69EMI    H0E 1311   3.525   4.612   0.984 -0.3052 -0.8951 -0.4272
   70EMI    C01 1312   1.925   3.551   2.501  0.5283  0.0033 -0.9674
   70EMI    C04 1313   2.050   3.489   2.669 -0.3687 -0.2931 -0.0710
   70EMI    C03 1314   1.968   3.389   2.646  0.2504  0.6659  0.1986
   70EMI    H07 1315   1.892   3.610   2.419  0.9826  0.3605 -0.9002
   70EMI    H09 1316   2.119   3.500   2.750  0.6317 -0.5248 -0.8778
   70EMI    H08 1317   1.944   3.297   2.696 -0.0591 -0.0631 -1.2285
   70EMI    C05 1318   1.770   3.346   2.473 -0.3191 -0.4727  0.0109
   70EMI    H0B 1319   1.694   3.414   2.437 -2.4453 -1.9470  1.4190
   70EMI    H0C 1320   1.810   3.295   2.386  2.8874  2.0806 -0.2024
   70EMI    H0D 1321   1.720   3.286   2.548 -0.2310  0.4040  0.7824
   70EMI    N00 1322   1.890   3.425   2.536 -0.5852 -0.3668  0.0468
   70EMI    C06 1323   2.122   3.712   2.559 -0.1240  0.1911  0.2211
   70EMI    H0F 1324   2.138   3.729   2.454  2.7737 -2.3058  0.1239
   70EMI    C0N 1325   2.076   3.827   2.654 -0.6193  0.0824  0.1259
   70EMI    H0O 1326   1.976   3.822   2.696 -0.3108 -0.8590  0.7834
   70EMI    H0P 1327   2.143   3.828   2.738  0.5201 -1.6799 -0.7029
   70EMI    H0Q 1328   2.094   3.920   2.601  0.5879 -0.1073  0.1712
   70EMI    N02 1329   2.032   3.588   2.578  0.1415 -0.1738  0.5208
   70EMI    H0E 1330   2.216   3.667   2.588 -0.1801  1.8288  3.3750
   71EMI    C01 1331   1.563   4.861   3.444  0.1471  0.1571 -0.5535
   71EMI    C04 1332   1.587   4.955   3.642  0.3524  0.2054  0.5865
   71EMI    C03 1333   1.458   4.929   3.614  0.5165 -0.4942  0.1612
   71EMI    H07 1334   1.590   4.842   3.342 -2.6689 -1.6950 -1.0628
   71EMI    H09 1335   1.635   4.985   3.733 -2.6436 -0.5343  2.5842
   71EMI    H08 1336   1.365   4.955   3.661  0.4841 -0.1594 -0.0805
   71EMI    C05 1337   1.316   4.842   3.419  0.2696 -0.2198  0.1728
   71EMI    H0B 1338   1.340   4.847   3.313 -1.3850  2.5157 -0.1655
   71EMI    H0C 1339   1.266   4.749   3.441 -1.6373  0.5524 -0.6507
   71EMI    H0D 1340   1.248   4.922   3.444  1.8898  0.7580  1.7265
   71EMI    N00 1341   1.447   4.873   3.491  0.8000 -0.1263 -0.1547
   71EMI    C06 1342   1.786   4.855   3.552  0.0968 -0.3522  1.0287
   71EMI    H0F 1343   1.787   4.825   3.655 -0.6862  2.1721  1.8611
   71EMI    C0N 1344   1.814   4.734   3.470  0.2446 -0.2542  0.5794
   71EMI    H0O 1345   1.812   4.744   3.362 -2.5866 -1.7285  0.3988
   71EMI    H0P 1346   1.914   4.695   3.486 -0.0249 -2.1802 -1.8224
   71EMI    H0Q 1347   1.745   4.654   3.495 -1.1814  0.1134 -1.8795
   71EMI    N02 1348   1.651   4.897   3.536  0.2731 -0.1690 -0.1226
   71EMI    H0E 1349   1.850   4.940   3.532  1.3791 -1.5198 -0.0836
   72EMI    C01 1350   3.024   2.368   4.719  0.0453  0.0120  0.5571
   72EMI    C04 1351   2.846   2.496   4.696 -0.7381  0.2334 -0.1241
   72EMI    C03 1352   2.950   2.570   4.671  0.0090  0.0930 -0.0422
   72EMI    H07 1353   3.087   2.288   4.750 -1.0056 -0.4408  1.6094
   72EMI    H09 1354   2.741   2.516   4.698 -0.9376 -0.7649 -0.2738
   72EMI    H08 1355   2.954   2.674   4.645 -0.0181  0.3050  0.7807
   72EMI    C05 1356   3.201   2.539   4.706 -0.3278  0.7881 -0.0727
   72EMI    H0B 1357   3.243   2.474   4.781 -3.1235  0.2357  1.1250
   72EMI    H0C 1358   3.263   2.540   4.617 -0.6608  2.4049 -0.3238
   72EMI    H0D 1359   3.214   2.632   4.759  0.8788 -0.6066  2.2548
   72EMI    N00 1360   3.064   2.490   4.685  0.4070  0.6011 -0.5367
   72EMI    C06 1361   2.801   2.267   4.770  0.0937  0.2527  0.6807
   72EMI    H0F 1362   2.859   2.176   4.778  0.5261  0.5994  1.5321
   72EMI    C0N 1363   2.736   2.309   4.900 -0.4111  0.3216 -0.3864
   72EMI    H0O 1364   2.654   2.373   4.870 -1.0164  0.9058  2.3047
   72EMI    H0P 1365   2.702   2.220   4.952 -0.4795  0.3425 -0.3947
   72EMI    H0Q 1366   2.808   2.362   4.961 -0.1395 -0.9743  0.4621
   72EMI    N02 1367   2.889   2.371   4.730 -0.0407  0.5892  0.3338
   72EMI    H0E 1368   2.734   2.243   4.689  2.1557  0.1720 -1.0955
   73EMI    C01 1369   4.924   3.931   4.855  1.2443 -0.1462 -0.0691
   73EMI    C04 1370   4.776   4.088   4.890  0.7406 -0.5797 -0.0919
   73EMI    C03 1371   4.746   3.984   4.968 -0.4896  0.0355  0.6559
   73EMI    H07 1372   5.015   3.886   4.822  1.3280 -0.5009  0.6463
   73EMI    H09 1373   4.742   4.189   4.893  1.5152 -0.1668 -2.7390
   73EMI    H08 1374   4.669   3.985   5.043  0.1931 -1.2222  1.4139
   73EMI    C05 1375   4.828   3.749   5.009  0.6743 -0.4755  0.1328
   73EMI    H0B 1376   4.887   3.684   4.946 -0.8946 -0.7486 -1.1079
   73EMI    H0C 1377   4.880   3.749   5.104  0.6964 -1.9766  0.1532
   73EMI    H0D 1378   4.724   3.722   5.019  0.1568  1.5695  0.6634
   73EMI    N00 1379   4.829   3.881   4.937  0.3382 -0.0018 -0.3364
   73EMI    C06 1380   4.975   4.149   4.730  0.4194  0.4006  0.6524
   73EMI    H0F 1381   5.072   4.108   4.752 -0.3135 -1.8029 -0.0102
   73EMI    C0N 1382   4.921   4.142   4.584 -0.0927  0.0784 -0.1171
   73EMI    H0O 1383   4.913   4.043   4.541 -1.2197  0.3305 -0.5202
   73EMI    H0P 1384   4.821   4.179   4.565  0.1510  0.1945 -1.2461
   73EMI    H0Q 1385   4.986   4.188   4.510 -1.7134  0.5182 -1.3014
   73EMI    N02 1386   4.892   4.056   4.817 -0.3158 -0.1975 -0.3269
   73EMI    H0E 1387   4.981   4.250   4.770  0.4061  1.8416 -2.6921
   74EMI    C01 1388   1.038   4.908   0.560  0.2669 -0.0653 -0.4045
   74EMI    C04 1389   0.944   5.022   0.401 -0.1897 -0.6644 -0.2110
   74EMI    C03 1390   1.057   4.972   0.350 -0.3353  0.1055  0.3716
   74EMI    H07 1391   1.049   4.865   0.657 -1.2787  0.4131  0.0193
   74EMI    H09 1392   0.871   5.077   0.345 -0.3630 -0.3165  0.3557
   74EMI    H08 1393   1.094   4.980   0.250 -1.7867  1.0687 -0.1204
   74EMI    C05 1394   1.253   4.851   0.454 -0.3119  0.1281 -0.1613
   74EMI    H0B 1395   1.264   4.778   0.533 -2.3646 -1.0107 -0.8487
   74EMI    H0C 1396   1.267   4.790   0.366 -1.3876  2.3555 -1.9829
   74EMI    H0D 1397   1.329   4.927   0.461  0.4821 -0.7011  0.5185
   74EMI    N00 1398   1.121   4.910   0.456  0.6226  0.1709  0.0370
   74EMI    C06 1399   0.812   5.001   0.620  0.8721  0.3716  0.6715
   74EMI    H0F 1400   0.791   5.107   0.628  0.8984  0.4504 -0.1488
   74EMI    C0N 1401   0.684   4.947   0.539  0.4727 -0.1694 -0.7846
   74EMI    H0O 1402   0.693   4.839   0.545 -1.5385 -0.4656 -2.2891
   74EMI    H0P 1403   0.592   4.987   0.580  0.8066 -1.5633  1.4928
   74EMI    H0Q 1404   0.687   4.972   0.434 -1.3842 -1.4057 -1.1619
   74EMI    N02 1405   0.929   4.979   0.532 -0.6130 -0.4432 -0.3308
   74EMI    H0E 1406   0.821   4.947   0.713 -3.1088  0.5767  1.3442
   75EMI    C01 1407   1.643   2.049   3.729  0.0253  0.2373  0.0064
   75EMI    C04 1408   1.861   2.025   3.769  0.6525 -0.2013  0.6153
   75EMI    C03 1409   1.830   2.151   3.734 -0.0031 -0.3331  0.3438
   75EMI    H07 1410   1.537   2.034   3.728 -0.0252  0.5631  0.3501
   75EMI    H09 1411   1.945   1.975   3.813  1.1780  0.1235  0.0040
   75EMI    H08 1412   1.888   2.240   3.743 -1.7533  0.8079  0.6974
   75EMI    C05 1413   1.626   2.279   3.632  0.2055  0.3226  0.0021
   75EMI    H0B 1414   1.558   2.320   3.705  0.0766  0.5003 -0.2158
   75EMI    H0C 1415   1.702   2.354   3.618 -0.2054  0.9313  0.9513
   75EMI    H0D 1416   1.582   2.246   3.539 -2.1316  0.1087  1.1089
   75EMI    N00 1417   1.696   2.165   3.696  0.4836 -0.0504  0.4155
   75EMI    C06 1418   1.708   1.826   3.827  0.5517 -0.1289  0.2306
   75EMI    H0F 1419   1.802   1.785   3.860  2.2365  2.0610 -1.5090
   75EMI    C0N 1420   1.614   1.828   3.949 -0.0030 -0.5974  0.7612
   75EMI    H0O 1421   1.605   1.735   4.003  0.8318 -0.9958  0.2374
   75EMI    H0P 1422   1.625   1.900   4.030 -0.6760 -1.7321  1.8903
   75EMI    H0Q 1423   1.519   1.854   3.903  0.6120 -0.6144 -0.5900
   75EMI    N02 1424   1.736   1.967   3.773  0.8458  0.3919  0.0317
   75EMI    H0E 1425   1.672   1.759   3.751  0.9547 -0.4640  0.3333
   76EMI    C01 1426   2.342   4.053   4.235 -0.2987  0.2667 -0.0531
   76EMI    C04 1427   2.518   4.004   4.115  0.2872 -0.6572  0.8225
   76EMI    C03 1428   2.540   4.117   4.185  0.1710 -0.1696  0.6359
   76EMI    H07 1429   2.251   4.034   4.289 -1.9112  2.8520 -1.6179
   76EMI    H09 1430   2.577   3.960   4.037  1.0895  1.2592  0.2936
   76EMI    H08 1431   2.619   4.188   4.172  1.6165 -1.7363  0.4085
   76EMI    C05 1432   2.398   4.279   4.324  1.1554  0.2598 -1.4449
   76EMI    H0B 1433   2.422   4.359   4.255  0.6195  3.1958  1.5293
   76EMI    H0C 1434   2.293   4.285   4.349  1.4977 -0.1989  0.2315
   76EMI    H0D 1435   2.463   4.290   4.409  1.4302 -0.7976 -1.5032
   76EMI    N00 1436   2.426   4.152   4.256 -0.5772  0.5844 -0.0346
   76EMI    C06 1437   2.333   3.828   4.137 -0.1425 -0.0725 -0.0318
   76EMI    H0F 1438   2.233   3.835   4.179  0.0986  0.6072  0.4667
   76EMI    C0N 1439   2.306   3.803   3.991 -0.1175 -0.0821 -0.0041
   76EMI    H0O 1440   2.346   3.707   3.961  0.6545  0.1482  0.2836
   76EMI    H0P 1441   2.201   3.812   3.962  0.3311  0.9238 -1.4450
   76EMI    H0Q 1442   2.362   3.880   3.939  0.2212  0.6507  1.3989
   76EMI    N02 1443   2.394   3.956   4.166  0.0591 -0.7565  0.6506
   76EMI    H0E 1444   2.376   3.750   4.198 -0.1705  0.3472  0.5343
   77EMI    C01 1445   3.137   0.272   0.858  0.1780  0.2746 -0.6169
   77EMI    C04 1446   3.177   0.068   0.902 -0.6525 -1.0346 -0.3828
   77EMI    C03 1447   3.048   0.073   0.874 -0.8235 -0.0671  0.2511
   77EMI    H07 1448   3.147   0.378   0.859 -1.3208  0.4401 -1.4095
   77EMI    H09 1449   3.241  -0.010   0.937  2.4828  2.1762  1.6853
   77EMI    H08 1450   2.977  -0.007   0.878 -0.5288 -0.2741  1.8564
   77EMI    C05 1451   2.895   0.256   0.796  0.0326  0.5041  0.2451
   77EMI    H0B 1452   2.814   0.195   0.833  0.0002  0.6825  0.4727
   77EMI    H0C 1453   2.886   0.361   0.819 -1.4234  0.5978 -0.6668
   77EMI    H0D 1454   2.899   0.240   0.689 -1.5815 -1.0847  0.3775
   77EMI    N00 1455   3.023   0.201   0.837 -0.8130 -0.5916  0.1483
   77EMI    C06 1456   3.377   0.210   0.911  0.5372  0.1548  0.2404
   77EMI    H0F 1457   3.399   0.314   0.890 -0.0361  0.2193 -0.0588
   77EMI    C0N 1458   3.401   0.181   1.057 -1.0177  0.1874  0.2821
   77EMI    H0O 1459   3.328   0.231   1.120  0.4530  1.3165  1.1618
   77EMI    H0P 1460   3.408   0.078   1.090  1.3736  0.6076  1.2526
   77EMI    H0Q 1461   3.499   0.221   1.081 -0.7628 -1.3172  1.9184
   77EMI    N02 1462   3.234   0.192   0.878  0.3659  0.7051 -0.0882
   77EMI    H0E 1463   3.437   0.157   0.839 -1.5358 -1.5936 -0.3024
   78EMI    C01 1464   0.731   1.365   2.249 -0.0631 -0.6479 -0.3550
   78EMI    C04 1465   0.525   1.364   2.188 -0.2704 -0.0858 -0.0299
   78EMI    C03 1466   0.591   1.452   2.111  0.3658 -0.5157  0.6450
   78EMI    H07 1467   0.817   1.351   2.311 -0.4509  0.9901  0.6194
   78EMI    H09 1468   0.425   1.332   2.170 -0.4764  0.0999  0.7475
   78EMI    H08 1469   0.546   1.508   2.032  0.1383 -0.0788  1.0834
   78EMI    C05 1470   0.828   1.538   2.109  0.5328  0.4676 -0.1754
   78EMI    H0B 1471   0.920   1.502   2.151  0.2408 -0.0589  0.0340
   78EMI    H0C 1472   0.836   1.538   2.001 -2.3070  0.3525 -0.4722
   78EMI    H0D 1473   0.810   1.641   2.134  1.1976  0.7852 -0.9485
   78EMI    N00 1474   0.721   1.450   2.155  0.0781 -0.5677  0.3236
   78EMI    C06 1475   0.580   1.195   2.362  0.0192  0.3013  0.3850
   78EMI    H0F 1476   0.546   1.117   2.295  0.5436  0.9950 -0.7215
   78EMI    C0N 1477   0.700   1.143   2.442  0.8703 -0.9210  0.1642
   78EMI    H0O 1478   0.733   1.217   2.514  1.0736 -0.2660 -0.5762
   78EMI    H0P 1479   0.674   1.057   2.501  1.3575 -0.7512  0.6330
   78EMI    H0Q 1480   0.778   1.116   2.372 -1.1025 -1.4290 -1.9536
   78EMI    N02 1481   0.613   1.307   2.274 -0.4624  0.0464 -0.0167
   78EMI    H0E 1482   0.500   1.223   2.428  0.0607 -1.3804  1.2066
   79EMI    C01 1483   4.195   2.602   4.540 -0.6248 -0.0291 -0.3030
   79EMI    C04 1484   4.104   2.417   4.466  0.1680  1.0410  0.9437
   79EMI    C03 1485   4.006   2.507   4.475 -1.0316 -0.5391 -0.1748
   79EMI    H07 1486   4.266   2.674   4.574 -1.1219  0.8123 -0.9788
   79EMI    H09 1487   4.095   2.318   4.427 -1.1291  1.8318 -0.8870
   79EMI    H08 1488   3.903   2.508   4.448 -0.8247  0.8823 -0.9842
   79EMI    C05 1489   4.003   2.754   4.540 -0.1958  0.0668  0.4441
   79EMI    H0B 1490   3.992   2.761   4.647  1.6168 -2.2718  0.8415
   79EMI    H0C 1491   4.077   2.830   4.520 -1.0214  0.9342  0.5869
   79EMI    H0D 1492   3.915   2.770   4.479  0.9694  2.1252 -0.8110
   79EMI    N00 1493   4.068   2.626   4.509  0.3020  0.3683  0.0897
   79EMI    C06 1494   4.356   2.422   4.524 -1.1596 -0.4358  0.1504
   79EMI    H0F 1495   4.429   2.500   4.540  1.6509 -2.5221 -1.4549
   79EMI    C0N 1496   4.366   2.324   4.643 -0.2160 -0.3993 -0.5378
   79EMI    H0O 1497   4.279   2.261   4.635 -1.9167  1.8716 -1.1688
   79EMI    H0P 1498   4.459   2.269   4.634 -0.3503 -0.5284 -1.1302
   79EMI    H0Q 1499   4.357   2.370   4.741  1.1786 -3.8001  1.3639
   79EMI    N02 1500   4.224   2.481   4.512  0.1593  0.6178  0.1704
   79EMI    H0E 1501   4.379   2.376   4.429 -2.1565 -0.0444 -0.3005
   80EMI    C01 1502   4.458   3.015   3.802  0.0351  0.1366 -0.1846
   80EMI    C04 1503   4.548   2.828   3.846  0.2979  0.7104 -0.2230
   80EMI    C03 1504   4.612   2.881   3.739  0.3322 -0.2464  0.4145
   80EMI    H07 1505   4.396   3.102   3.801  0.3935  0.4279 -2.3684
   80EMI    H09 1506   4.577   2.743   3.904 -1.8478  1.0388  1.4458
   80EMI    H08 1507   4.690   2.840   3.680 -0.3078 -0.8126 -0.0407
   80EMI    C05 1508   4.574   3.097   3.607  0.3933 -0.1778  0.6242
   80EMI    H0B 1509   4.657   3.067   3.544  0.0357 -2.4512  1.1570
   80EMI    H0C 1510   4.494   3.080   3.537  2.3002 -0.8335 -1.4931
   80EMI    H0D 1511   4.595   3.197   3.641 -0.2520  0.2282 -0.1489
   80EMI    N00 1512   4.549   2.999   3.715  0.0583  0.2754 -0.1750
   80EMI    C06 1513   4.378   2.905   4.017 -0.2410 -1.1028  0.3429
   80EMI    H0F 1514   4.438   2.914   4.106 -1.3994 -1.8850  1.2548
   80EMI    C0N 1515   4.248   2.987   4.003 -0.0037  0.5210 -0.0787
   80EMI    H0O 1516   4.272   3.091   4.019  0.0820  0.5312 -0.2697
   80EMI    H0P 1517   4.207   2.967   3.904  1.0083  0.4780 -0.4992
   80EMI    H0Q 1518   4.176   2.952   4.076 -0.3519 -1.4161 -1.2691
   80EMI    N02 1519   4.462   2.921   3.891 -0.0229  0.2135  0.2227
   80EMI    H0E 1520   4.332   2.807   4.006 -2.5859  0.1795 -2.8469
   81EMI    C01 1521   1.257   0.935   3.828 -0.7481 -0.1009  0.2279
   81EMI    C04 1522   1.383   0.933   3.995 -0.5146 -0.1861  0.4693
   81EMI    C03 1523   1.308   1.043   3.999  0.8106  0.1714  0.7165
   81EMI    H07 1524   1.206   0.900   3.741 -0.3734  0.3323 -0.1771
   81EMI    H09 1525   1.452   0.913   4.074 -0.1469  0.9476  0.4551
   81EMI    H08 1526   1.303   1.122   4.070  0.0510 -0.0767  0.9526
   81EMI    C05 1527   1.131   1.155   3.853  0.0637 -0.0153 -0.4945
   81EMI    H0B 1528   1.071   1.193   3.935 -0.6633 -1.6042 -0.2482
   81EMI    H0C 1529   1.183   1.225   3.791  2.5988 -0.1584  1.3142
   81EMI    H0D 1530   1.059   1.110   3.786  0.1804 -0.6275 -0.2249
   81EMI    N00 1531   1.225   1.047   3.889  0.7019  0.6170 -0.2121
   81EMI    C06 1532   1.376   0.713   3.876  0.2599 -0.1569  0.2544
   81EMI    H0F 1533   1.464   0.705   3.814  0.7756  5.8842 -0.4382
   81EMI    C0N 1534   1.369   0.644   4.010 -0.2876  0.2115  0.3872
   81EMI    H0O 1535   1.328   0.545   3.993 -1.3367  0.6680  0.1575
   81EMI    H0P 1536   1.461   0.630   4.065 -0.2345 -0.4438  0.1353
   81EMI    H0Q 1537   1.294   0.698   4.067  0.1411  1.8156 -0.5088
   81EMI    N02 1538   1.354   0.860   3.887  0.2672  0.5043  0.2349
   81EMI    H0E 1539   1.290   0.669   3.827  1.0894 -0.6519 -0.7730
   82EMI    C01 1540   3.789   1.870   1.167  1.0217  0.5287 -0.3575
   82EMI    C04 1541   3.646   1.846   0.995  0.7991  0.2197 -0.3261
   82EMI    C03 1542   3.584   1.801   1.105 -0.8858  0.7177 -0.0195
   82EMI    H07 1543   3.877   1.902   1.217  2.2631 -0.2248 -1.9774
   82EMI    H09 1544   3.616   1.836   0.893 -0.2262 -1.0053  0.0748
   82EMI    H08 1545   3.491   1.749   1.112  0.2227 -1.4718 -0.5082
   82EMI    C05 1546   3.663   1.730   1.340  0.0163  0.4057 -0.0125
   82EMI    H0B 1547   3.560   1.700   1.356  1.0127 -3.7402 -0.2706
   82EMI    H0C 1548   3.717   1.637   1.334 -0.2265  0.3107 -0.9964
   82EMI    H0D 1549   3.687   1.787   1.429 -1.6869  1.8816 -0.4296
   82EMI    N00 1550   3.681   1.791   1.205 -0.4209 -0.2204  0.0659
   82EMI    C06 1551   3.876   1.957   0.952  0.9357 -0.4290 -0.0885
   82EMI    H0F 1552   3.905   1.883   0.879 -1.2770 -0.2132 -1.2654
   82EMI    C0N 1553   3.819   2.085   0.883 -0.0891  0.0539  0.3406
   82EMI    H0O 1554   3.897   2.137   0.828 -0.1473 -0.1918  0.0165
   82EMI    H0P 1555   3.737   2.069   0.814 -0.9198 -0.0257  1.3303
   82EMI    H0Q 1556   3.776   2.151   0.957 -0.7928  0.1606 -0.1542
   82EMI    N02 1557   3.772   1.890   1.036 -0.1547 -0.0841  0.1712
   82EMI    H0E 1558   3.961   1.967   1.018  0.7251  0.2943  0.0797
   83EMI    C01 1559   0.722   5.054   1.924 -0.2642 -0.2599 -0.4758
   83EMI    C04 1560   0.884   4.900   1.943 -0.7121  0.2186 -0.5680
   83EMI    C03 1561   0.894   4.979   2.051  0.1274  0.2132 -0.6676
   83EMI    H07 1562   0.629   5.099   1.898 -0.2629 -0.6195 -1.1285
   83EMI    H09 1563   0.939   4.815   1.910 -2.2723 -1.3357  0.5951
   83EMI    H08 1564   0.958   4.977   2.136 -0.2454  3.1302 -0.2434
   83EMI    C05 1565   0.774   5.193   2.125  0.2390  0.4209 -0.3253
   83EMI    H0B 1566   0.714   5.174   2.213 -0.8904  0.8749 -0.9855
   83EMI    H0C 1567   0.874   5.233   2.139  0.3678  0.9133 -2.3478
   83EMI    H0D 1568   0.715   5.266   2.073 -0.2364  0.4280  0.2088
   83EMI    N00 1569   0.791   5.074   2.041 -0.1181 -0.1601  0.8201
   83EMI    C06 1570   0.709   4.856   1.765  0.3416 -0.3472  0.7636
   83EMI    H0F 1571   0.786   4.848   1.690 -1.6954 -1.6169 -1.2789
   83EMI    C0N 1572   0.678   4.715   1.813 -0.0532 -0.4097 -0.0261
   83EMI    H0O 1573   0.736   4.686   1.899 -1.1714  0.6005  1.1078
   83EMI    H0P 1574   0.574   4.706   1.841  0.0168 -0.3748  0.2442
   83EMI    H0Q 1575   0.698   4.636   1.741  2.0492 -0.1210  0.1780
   83EMI    N02 1576   0.773   4.944   1.869  0.0700  0.9114 -0.1220
   83EMI    H0E 1577   0.632   4.908   1.711  2.0854  1.1639 -0.4118
   84EMI    C01 1578   0.908   3.197   1.883  0.5917 -0.2452 -0.3003
   84EMI    C04 1579   1.028   3.137   1.710 -0.1290 -0.0506  0.3816
   84EMI    C03 1580   1.015   3.030   1.788 -0.8295  0.6574  0.4097
   84EMI    H07 1581   0.850   3.260   1.947  0.3585 -0.8024  0.0441
   84EMI    H09 1582   1.073   3.136   1.613 -0.1343 -2.5504  0.3603
   84EMI    H08 1583   1.052   2.931   1.774  0.3443  1.1446 -0.1004
   84EMI    C05 1584   0.891   2.971   1.996 -0.8360  0.6147 -0.0635
   84EMI    H0B 1585   0.836   2.888   1.957 -2.9524  1.8802  0.0806
   84EMI    H0C 1586   0.980   2.946   2.053 -1.5738 -1.0597  0.4083
   84EMI    H0D 1587   0.827   3.032   2.058 -1.2310 -0.4217  0.5726
   84EMI    N00 1588   0.933   3.063   1.894  0.0516 -0.6372 -0.2871
   84EMI    C06 1589   0.944   3.379   1.726 -0.9688  0.6928  0.1780
   84EMI    H0F 1590   0.901   3.440   1.804  1.6447  2.6148  0.2511
   84EMI    C0N 1591   1.094   3.431   1.710  0.0595 -0.6531 -0.0880
   84EMI    H0O 1592   1.076   3.533   1.679 -0.9108 -0.8920 -0.3636
   84EMI    H0P 1593   1.122   3.417   1.813 -2.2645  0.5470  0.7813
   84EMI    H0Q 1594   1.163   3.386   1.639  0.8153  2.1295 -1.2571
   84EMI    N02 1595   0.960   3.239   1.775  0.4075 -0.2469 -0.0479
   84EMI    H0E 1596   0.888   3.386   1.634 -0.4268 -0.5727 -0.2753
   85EMI    C01 1597   1.947   0.625   2.725 -0.1864 -0.0829  0.0191
   85EMI    C04 1598   2.139   0.520   2.753 -0.4535 -0.2799 -0.2390
   85EMI    C03 1599   2.159   0.639   2.699  0.8625 -0.3500 -0.9897
   85EMI    H07 1600   1.842   0.645   2.725 -0.5447 -1.5962  2.2464
   85EMI    H09 1601   2.212   0.444   2.772  1.6874  1.0925 -2.4069
   85EMI    H08 1602   2.249   0.688   2.670  1.4731 -0.8705 -0.0375
   85EMI    C05 1603   2.022   0.846   2.654 -0.3990  0.1295 -0.0531
   85EMI    H0B 1604   2.064   0.913   2.728  1.8249  0.1074 -1.1962
   85EMI    H0C 1605   2.067   0.872   2.559  1.0018  0.5119  0.6807
   85EMI    H0D 1606   1.915   0.858   2.659 -0.1631  3.1081 -0.3143
   85EMI    N00 1607   2.043   0.708   2.696  0.0869 -0.2542 -0.3388
   85EMI    C06 1608   1.921   0.406   2.836 -0.4674  0.2951 -0.7467
   85EMI    H0F 1609   1.990   0.324   2.820  0.4645  1.2538 -1.7880
   85EMI    C0N 1610   1.882   0.423   2.978 -0.5854  0.1664 -0.3424
   85EMI    H0O 1611   1.814   0.352   3.024 -1.2281  1.3772  0.6471
   85EMI    H0P 1612   1.972   0.408   3.037 -1.2144  0.8702  0.8313
   85EMI    H0Q 1613   1.831   0.515   3.004 -1.1932 -0.2841  0.0994
   85EMI    N02 1614   2.005   0.519   2.787 -0.3094  0.3595 -0.3986
   85EMI    H0E 1615   1.837   0.391   2.769 -0.3453  1.2481 -1.1218
   86EMI    C01 1616   2.017   0.026   2.667 -0.0505 -0.4432 -0.2153
   86EMI    C04 1617   2.023   0.067   2.448  0.3171  0.1626  0.3983
   86EMI    C03 1618   1.904   0.106   2.497  0.3715  0.3033  0.3501
   86EMI    H07 1619   2.048  -0.011   2.763 -0.4012 -1.1215 -0.3512
   86EMI    H09 1620   2.066   0.069   2.351  0.9230 -0.9660  0.6212
   86EMI    H08 1621   1.820   0.144   2.443 -0.1902  0.7563  1.5088
   86EMI    C05 1622   1.783   0.089   2.721 -0.1419 -0.2787  0.2461
   86EMI    H0B 1623   1.695   0.107   2.661 -1.1204 -1.5911  1.2309
   86EMI    H0C 1624   1.765   0.001   2.781  2.2737  0.2463  1.9040
   86EMI    H0D 1625   1.810   0.174   2.783  0.6111  1.3264 -2.1131
   86EMI    N00 1626   1.900   0.074   2.635 -0.5020 -0.6884  0.4814
   86EMI    C06 1627   2.227  -0.041   2.553  0.4044  0.1028  0.3462
   86EMI    H0F 1628   2.281  -0.044   2.646 -1.3082  1.9600  1.4948
   86EMI    C0N 1629   2.221  -0.181   2.506 -0.0037  0.0127 -0.1477
   86EMI    H0O 1630   2.312  -0.213   2.457 -0.4503 -0.3567 -0.7507
   86EMI    H0P 1631   2.196  -0.250   2.586 -1.3159 -0.3252 -0.8290
   86EMI    H0Q 1632   2.130  -0.185   2.447  0.2147  1.6829 -0.6485
   86EMI    N02 1633   2.090   0.015   2.560 -0.2452  0.4446 -0.5012
   86EMI    H0E 1634   2.283   0.006   2.474  1.6589 -2.2198 -0.2483
   87EMI    C01 1635   2.940   3.597   1.057 -0.2951 -0.3358  0.0600
   87EMI    C04 1636   3.038   3.659   0.873 -0.1849 -0.0139 -0.3601
   87EMI    C03 1637   3.112   3.566   0.932 -0.0717  0.7684  0.3457
   87EMI    H07 1638   2.872   3.591   1.139 -0.2425  0.5360  0.1791
   87EMI    H09 1639   3.060   3.719   0.788  3.4424 -2.9662 -1.7845
   87EMI    H08 1640   3.207   3.529   0.900 -0.5539  0.8228 -1.2427
   87EMI    C05 1641   3.093   3.423   1.136  0.0052 -0.4695  0.9057
   87EMI    H0B 1642   3.055   3.332   1.093  1.2485  0.6391 -2.9276
   87EMI    H0C 1643   3.200   3.432   1.145 -0.0623  0.8979  0.5865
   87EMI    H0D 1644   3.050   3.445   1.233 -1.9638  1.8022 -0.3600
   87EMI    N00 1645   3.046   3.523   1.044  0.8262 -0.1574  0.6202
   87EMI    C06 1646   2.800   3.751   0.917 -0.7409  0.0569  0.0778
   87EMI    H0F 1647   2.758   3.774   1.014  0.3720  0.8617  0.3943
   87EMI    C0N 1648   2.825   3.886   0.849 -1.0319  0.1236  0.0417
   87EMI    H0O 1649   2.867   3.867   0.751 -1.6143  1.2864 -0.4528
   87EMI    H0P 1650   2.737   3.946   0.832  0.4040  2.1679 -0.5761
   87EMI    H0Q 1651   2.894   3.956   0.896 -0.4229  0.2964 -1.0780
   87EMI    N02 1652   2.916   3.660   0.943  0.3995 -0.3787 -0.2445
   87EMI    H0E 1653   2.719   3.702   0.864  0.3952  0.2678 -1.9769
   88EMI    C01 1654   4.598   4.194   3.615 -0.7593  0.1427  0.5199
   88EMI    C04 1655   4.745   4.053   3.529 -0.2087 -0.0130 -0.3434
   88EMI    C03 1656   4.815   4.140   3.604  0.2907  0.2641  0.0070
   88EMI    H07 1657   4.504   4.237   3.642 -0.4650 -0.3968  2.6063
   88EMI    H09 1658   4.780   3.986   3.453 -2.8214 -0.7797 -0.9866
   88EMI    H08 1659   4.920   4.158   3.610  0.6790 -2.0852  1.9774
   88EMI    C05 1660   4.755   4.318   3.763  0.4948 -0.6263 -0.0699
   88EMI    H0B 1661   4.661   4.343   3.810  1.8076  1.9695  1.4152
   88EMI    H0C 1662   4.824   4.288   3.841 -0.9815 -0.1841  1.4769
   88EMI    H0D 1663   4.785   4.408   3.712  0.1366  0.2333  1.1715
   88EMI    N00 1664   4.719   4.216   3.671  0.1154  0.6013  0.1779
   88EMI    C06 1665   4.497   4.026   3.461  0.8406  0.5184 -0.0943
   88EMI    H0F 1666   4.480   4.075   3.366  0.6119 -1.4473 -1.1383
   88EMI    C0N 1667   4.507   3.873   3.427  0.2151 -0.5083  0.2515
   88EMI    H0O 1668   4.567   3.855   3.339  0.5945 -1.4420  0.6969
   88EMI    H0P 1669   4.557   3.833   3.514 -0.1874  0.6647  1.0641
   88EMI    H0Q 1670   4.407   3.831   3.427 -0.2088  0.3600  2.1233
   88EMI    N02 1671   4.606   4.085   3.537 -0.4702  0.2430  0.4289
   88EMI    H0E 1672   4.408   4.034   3.521  1.4523  0.7461  0.7924
   89EMI    C01 1673   0.108   0.443   0.187  0.5794 -0.1992 -0.6571
   89EMI    C04 1674   0.174   0.296   0.047 -0.0765 -0.1375 -0.3662
   89EMI    C03 1675   0.280   0.350   0.110  0.2172  0.0844  0.7194
   89EMI    H07 1676   0.048   0.505   0.250 -0.8310 -1.2541 -0.8947
   89EMI    H09 1677   0.182   0.214  -0.021  2.0614  0.5622 -1.0391
   89EMI    H08 1678   0.378   0.309   0.104 -0.2654 -0.9985 -0.3622
   89EMI    C05 1679   0.342   0.534   0.267  0.5143  0.6915 -0.5170
   89EMI    H0B 1680   0.303   0.633   0.286 -0.4750  0.6309 -2.0726
   89EMI    H0C 1681   0.360   0.480   0.359 -0.5432 -0.8777 -1.1839
   89EMI    H0D 1682   0.430   0.533   0.205  0.2036 -0.2699 -0.9700
   89EMI    N00 1683   0.239   0.449   0.188 -0.1695 -0.2306 -0.8159
   89EMI    C06 1684  -0.079   0.342   0.053  0.1721  0.6626 -0.1220
   89EMI    H0F 1685  -0.115   0.245   0.083  0.8418  0.5629  0.3904
   89EMI    C0N 1686  -0.179   0.433   0.117  0.4072  0.2972  0.5201
   89EMI    H0O 1687  -0.160   0.415   0.222  1.1733 -0.5821  0.2385
   89EMI    H0P 1688  -0.160   0.537   0.092 -1.4709  1.2007  2.5164
   89EMI    H0Q 1689  -0.281   0.398   0.103 -0.3115  2.7603 -1.2575
   89EMI    N02 1690   0.063   0.363   0.094  0.2486  0.4565 -0.3038
   89EMI    H0E 1691  -0.094   0.354  -0.053  0.3596 -0.3255 -0.2653
   90EMI    C01 1692   3.940   2.492   3.849  0.1810  0.6527  0.5152
   90EMI    C04 1693   4.152   2.518   3.893  0.2154 -0.3672 -0.0357
   90EMI    C03 1694   4.096   2.451   3.998 -0.3230 -0.6707  0.7568
   90EMI    H07 1695   3.848   2.499   3.796  1.0806  1.9871 -0.9526
   90EMI    H09 1696   4.255   2.539   3.873  0.0078  0.5826 -0.1466
   90EMI    H08 1697   4.136   2.411   4.089  0.1307  1.0198  1.3357
   90EMI    C05 1698   3.859   2.383   4.050 -0.8189  0.1008  0.6462
   90EMI    H0B 1699   3.908   2.335   4.133 -1.4973 -1.6074  0.0993
   90EMI    H0C 1700   3.804   2.472   4.076 -0.1748  0.6238  0.2472
   90EMI    H0D 1701   3.812   2.298   4.002  0.1587  0.4980 -1.1276
   90EMI    N00 1702   3.962   2.435   3.965  0.2910  0.3839  0.3200
   90EMI    C06 1703   4.075   2.637   3.683 -0.1732  0.4504 -0.1943
   90EMI    H0F 1704   3.989   2.624   3.619  0.1017 -0.3676 -0.4082
   90EMI    C0N 1705   4.111   2.782   3.719 -0.0232 -0.1360 -0.0070
   90EMI    H0O 1706   4.082   2.847   3.637  0.8117 -0.8953 -0.9262
   90EMI    H0P 1707   4.054   2.800   3.809 -1.5233 -0.2127 -0.9083
   90EMI    H0Q 1708   4.217   2.799   3.735 -0.0739  1.1022 -0.8550
   90EMI    N02 1709   4.050   2.548   3.804 -0.3759  0.2775  0.0345
   90EMI    H0E 1710   4.165   2.597   3.640  0.5256  0.5130  1.1518
   91EMI    C01 1711   2.945   0.265   1.254  0.3483 -0.0797  0.3703
   91EMI    C04 1712   2.927   0.375   1.442 -0.0368  0.4714 -0.4574
   91EMI    C03 1713   3.030   0.286   1.449 -0.1533 -0.2022  0.0109
   91EMI    H07 1714   2.917   0.239   1.154  1.0883  2.1158 -0.4743
   91EMI    H09 1715   2.897   0.451   1.510 -2.2159 -1.6291  1.1083
   91EMI    H08 1716   3.094   0.268   1.532  0.3957 -0.4269 -0.4540
   91EMI    C05 1717   3.137   0.117   1.278 -0.2738 -0.4354  0.1133
   91EMI    H0B 1718   3.118   0.021   1.325 -0.0981  0.1524  1.4498
   91EMI    H0C 1719   3.131   0.115   1.171 -1.3458  0.2375  0.1489
   91EMI    H0D 1720   3.238   0.146   1.304 -0.0272  0.9881 -2.1746
   91EMI    N00 1721   3.045   0.220   1.328  0.9609 -0.4942  0.5682
   91EMI    C06 1722   2.763   0.427   1.264  0.2776  0.7118 -0.3133
   91EMI    H0F 1723   2.693   0.391   1.337 -0.4417  0.2104 -1.2249
   91EMI    C0N 1724   2.768   0.581   1.256 -0.0118 -0.9027  0.5086
   91EMI    H0O 1725   2.832   0.599   1.171  1.5537 -2.1176  1.3818
   91EMI    H0P 1726   2.670   0.625   1.244  0.5180  0.2535  0.2909
   91EMI    H0Q 1727   2.816   0.616   1.346 -1.0144  0.5670  0.5044
   91EMI    N02 1728   2.889   0.369   1.316  0.4291 -0.1235  0.3721
   91EMI    H0E 1729   2.745   0.386   1.165  1.0611 -0.1395 -0.1108
   92EMI    C01 1730   1.529   1.275   0.092 -0.3506 -0.5973 -0.3804
   92EMI    C04 1731   1.421   1.322   0.278 -0.2740  1.1843  0.7559
   92EMI    C03 1732   1.487   1.207   0.297  0.3358  0.4996 -0.2749
   92EMI    H07 1733   1.570   1.276  -0.006  2.1018  0.5490  0.5788
   92EMI    H09 1734   1.361   1.384   0.342  0.6354  1.3966  1.4119
   92EMI    H08 1735   1.490   1.139   0.379  1.1643 -1.7909 -2.0800
   92EMI    C05 1736   1.605   1.045   0.148  0.3379 -0.0428 -0.3784
   92EMI    H0B 1737   1.528   0.969   0.140  0.1309 -0.2077  2.1759
   92EMI    H0C 1738   1.654   1.054   0.053 -0.8933 -0.7896 -1.1121
   92EMI    H0D 1739   1.672   1.006   0.223  1.1262  0.7227 -0.6772
   92EMI    N00 1740   1.547   1.174   0.180 -0.4382 -0.4969 -0.0248
   92EMI    C06 1741   1.385   1.473   0.077 -0.6871 -0.9118 -0.0488
   92EMI    H0F 1742   1.288   1.452   0.033  0.2196 -2.8831 -1.2076
   92EMI    C0N 1743   1.393   1.600   0.167  0.1450  0.2816 -0.9114
   92EMI    H0O 1744   1.329   1.597   0.254  1.3277  1.7597  0.0593
   92EMI    H0P 1745   1.494   1.604   0.206 -0.6239 -1.4197  1.5014
   92EMI    H0Q 1746   1.368   1.691   0.113 -1.4869  0.2064 -0.3428
   92EMI    N02 1747   1.442   1.356   0.142 -0.1076 -0.4385 -0.7558
   92EMI    H0E 1748   1.459   1.499   0.002  1.5684 -2.0607  1.6665
   93EMI    C01 1749   1.562   1.717   1.777  0.3665  0.1291 -0.2856
   93EMI    C04 1750   1.514   1.513   1.834  0.2607  0.1937  0.3181
   93EMI    C03 1751   1.589   1.562   1.931  0.3913 -0.4315 -0.5191
   93EMI    H07 1752   1.566   1.804   1.715 -2.4970  0.8678  0.4114
   93EMI    H09 1753   1.469   1.417   1.817 -0.5793  0.7434 -0.6255
   93EMI    H08 1754   1.632   1.521   2.020  0.0386 -0.5833 -0.4167
   93EMI    C05 1755   1.698   1.786   1.969 -0.2484 -0.4154 -0.6594
   93EMI    H0B 1756   1.794   1.744   1.995  0.6953  0.3338 -2.7190
   93EMI    H0C 1757   1.719   1.878   1.915 -1.7487  0.9144  0.8976
   93EMI    H0D 1758   1.632   1.806   2.051 -0.1300 -2.0129 -0.1466
   93EMI    N00 1759   1.614   1.691   1.894 -0.4918 -0.1812  0.3370
   93EMI    C06 1760   1.385   1.616   1.636  0.2072 -0.1658  0.2769
   93EMI    H0F 1761   1.293   1.652   1.679  0.6969  1.6874 -0.1275
   93EMI    C0N 1762   1.424   1.709   1.521 -0.2332 -0.3405 -0.0635
   93EMI    H0O 1763   1.358   1.701   1.435  0.0982  0.7803 -0.4478
   93EMI    H0P 1764   1.396   1.805   1.562  0.6703  0.0224 -0.2552
   93EMI    H0Q 1765   1.531   1.694   1.509 -0.0003  0.7290  0.5401
   93EMI    N02 1766   1.485   1.615   1.748  0.1172  0.2192  0.3915
   93EMI    H0E 1767   1.385   1.520   1.587  0.1022 -0.9225  1.6941
   94EMI    C01 1768   2.313   0.384   3.235  0.2524 -0.6734 -0.3303
   94EMI    C04 1769   2.149   0.523   3.291  0.3744 -0.3164  0.1789
   94EMI    C03 1770   2.145   0.422   3.379 -0.1075  0.2531  0.1479
   94EMI    H07 1771   2.395   0.338   3.184  0.5646  0.5576 -0.9767
   94EMI    H09 1772   2.086   0.609   3.292  1.3814  0.4399 -0.4501
   94EMI    H08 1773   2.075   0.411   3.459 -1.8760 -2.4027 -1.5941
   94EMI    C05 1774   2.252   0.204   3.394 -0.0949 -0.3312 -0.0756
   94EMI    H0B 1775   2.201   0.198   3.489 -0.0797 -2.3489 -0.1538
   94EMI    H0C 1776   2.205   0.125   3.338 -0.8041 -1.4372  1.9708
   94EMI    H0D 1777   2.354   0.186   3.424 -0.7882 -3.0733  0.9290
   94EMI    N00 1778   2.249   0.339   3.344 -0.1987  0.2035 -0.0644
   94EMI    C06 1779   2.286   0.563   3.079 -0.5130  0.7147 -0.2008
   94EMI    H0F 1780   2.325   0.661   3.103  0.4268  0.1989  0.4400
   94EMI    C0N 1781   2.382   0.492   2.990  0.5172 -0.6839 -0.6055
   94EMI    H0O 1782   2.399   0.550   2.901 -0.0877 -1.5663 -1.3181
   94EMI    H0P 1783   2.486   0.496   3.023  0.8679 -0.9072 -1.6272
   94EMI    H0Q 1784   2.346   0.397   2.951 -0.2949 -0.1152 -1.2658
   94EMI    N02 1785   2.246   0.492   3.199 -0.7444 -0.3110  0.4312
   94EMI    H0E 1786   2.198   0.579   3.018 -0.4261  2.4728  0.0736
   95EMI    C01 1787   1.234   1.556   3.076  0.2170  0.2682 -0.9494
   95EMI    C04 1788   1.406   1.642   2.965  0.5504 -0.7449 -0.0867
   95EMI    C03 1789   1.368   1.735   3.058  0.7246  0.1042  0.6143
   95EMI    H07 1790   1.160   1.490   3.115  0.8755  0.2827  0.4094
   95EMI    H09 1791   1.489   1.641   2.898  1.8189 -0.0790  1.4178
   95EMI    H08 1792   1.407   1.831   3.082  1.0885  0.8706 -2.6047
   95EMI    C05 1793   1.172   1.751   3.220  0.6521  0.5085  0.3931
   95EMI    H0B 1794   1.135   1.681   3.293  1.1558  0.2411  0.3942
   95EMI    H0C 1795   1.224   1.832   3.269  0.7744  1.7733 -1.6782
   95EMI    H0D 1796   1.085   1.800   3.178  0.0955 -1.1108 -0.4091
   95EMI    N00 1797   1.254   1.683   3.121  0.3001 -0.2647 -0.0415
   95EMI    C06 1798   1.318   1.410   2.898 -0.1827 -0.0923 -0.1563
   95EMI    H0F 1799   1.313   1.422   2.791  2.2665 -1.7830 -0.5431
   95EMI    C0N 1800   1.440   1.328   2.944  0.0884  0.2286  0.3863
   95EMI    H0O 1801   1.521   1.399   2.934 -2.2506  2.7782 -2.3237
   95EMI    H0P 1802   1.435   1.298   3.048  1.9839  1.3943  0.8762
   95EMI    H0Q 1803   1.455   1.244   2.878 -0.6841 -0.4956  1.1051
   95EMI    N02 1804   1.313   1.536   2.972 -0.3262 -0.4918 -0.3669
   95EMI    H0E 1805   1.230   1.351   2.919  0.6087 -1.0061  0.6854
   96EMI    C01 1806   1.306   0.003   4.708  0.1703 -0.3210  0.4432
   96EMI    C04 1807   1.301  -0.213   4.710 -0.1840 -0.0069  0.9103
   96EMI    C03 1808   1.351  -0.172   4.831 -0.6276 -0.1383  0.2813
   96EMI    H07 1809   1.272   0.097   4.670  0.8185 -0.5954 -0.8656
   96EMI    H09 1810   1.285  -0.309   4.667 -0.9427 -0.6599  2.5813
   96EMI    H08 1811   1.387  -0.228   4.914  1.0222  1.0604  0.4317
   96EMI    C05 1812   1.376   0.053   4.950  0.2510 -0.0103 -0.2260
   96EMI    H0B 1813   1.369   0.157   4.921  0.5088 -0.1054 -0.6351
   96EMI    H0C 1814   1.317   0.032   5.038 -0.0669 -0.2592 -0.4961
   96EMI    H0D 1815   1.481   0.030   4.964 -0.1040 -0.8681  1.2440
   96EMI    N00 1816   1.347  -0.031   4.831 -0.2820  0.2038  0.1162
   96EMI    C06 1817   1.219  -0.103   4.496 -0.0195  0.0287  0.4424
   96EMI    H0F 1818   1.173  -0.007   4.474 -2.2791 -1.1469 -0.2423
   96EMI    C0N 1819   1.316  -0.133   4.380  0.5511  0.5626  0.1210
   96EMI    H0O 1820   1.366  -0.041   4.352  0.6507  0.5709  0.3240
   96EMI    H0P 1821   1.391  -0.208   4.405  1.2140  0.3444 -2.2634
   96EMI    H0Q 1822   1.263  -0.151   4.288  1.1276  3.4449 -0.8869
   96EMI    N02 1823   1.279  -0.103   4.632 -0.4054 -0.4760 -0.4182
   96EMI    H0E 1824   1.148  -0.184   4.493 -0.4877  0.4634 -0.9833
   97EMI    C01 1825   0.434   0.397   2.169  1.1603 -0.4431  0.1732
   97EMI    C04 1826   0.268   0.463   2.296  0.4631 -0.2219 -0.4033
   97EMI    C03 1827   0.379   0.446   2.373  0.6033 -0.6063  0.0434
   97EMI    H07 1828   0.491   0.359   2.087  0.6612 -0.6127 -0.1015
   97EMI    H09 1829   0.168   0.490   2.321  1.6104  2.8995  1.3376
   97EMI    H08 1830   0.390   0.462   2.478  0.3066  1.6096 -0.2207
   97EMI    C05 1831   0.611   0.356   2.339 -0.0429  0.1894 -0.4058
   97EMI    H0B 1832   0.602   0.261   2.389  1.4145 -0.3959 -1.1884
   97EMI    H0C 1833   0.678   0.345   2.256  0.1123  1.3314 -0.4433
   97EMI    H0D 1834   0.652   0.416   2.419  0.6157 -0.2518 -0.4053
   97EMI    N00 1835   0.479   0.394   2.289 -0.3946 -0.2894  0.3936
   97EMI    C06 1836   0.226   0.456   2.040 -0.1656  0.0095  0.1154
   97EMI    H0F 1837   0.152   0.381   2.019  0.0414 -0.0467 -0.4109
   97EMI    C0N 1838   0.163   0.593   2.039 -0.1508  0.1569  0.1887
   97EMI    H0O 1839   0.230   0.677   2.054 -2.0001  1.9513 -0.9893
   97EMI    H0P 1840   0.115   0.603   1.942  0.2132  1.4738  0.1269
   97EMI    H0Q 1841   0.087   0.603   2.116 -1.9242  1.7858 -1.6458
   97EMI    N02 1842   0.308   0.431   2.164  0.5031 -1.2001 -0.0427
   97EMI    H0E 1843   0.296   0.454   1.958  0.3246  1.1566  0.4740
   98EMI    C01 1844   0.488   3.978   3.635 -0.9333 -0.4423 -0.4611
   98EMI    C04 1845   0.360   3.847   3.526  0.3446  0.2743 -0.1207
   98EMI    C03 1846   0.286   3.939   3.588 -0.5883 -0.1787 -0.1502
   98EMI    H07 1847   0.573   4.032   3.671 -0.2857 -1.8295  0.1742
   98EMI    H09 1848   0.331   3.778   3.449 -1.0042  2.2834 -1.5255
   98EMI    H08 1849   0.183   3.964   3.575 -0.2456  0.2226 -2.6132
   98EMI    C05 1850   0.327   4.113   3.766 -1.0502  0.4437  0.5334
   98EMI    H0B 1851   0.406   4.186   3.769 -1.8092  1.2783  0.7234
   98EMI    H0C 1852   0.238   4.155   3.723  0.4290  2.0881 -1.0634
   98EMI    H0D 1853   0.294   4.071   3.861 -2.5132  0.6907  0.1629
   98EMI    N00 1854   0.366   4.010   3.669 -0.3438 -0.1972 -0.0130
   98EMI    C06 1855   0.606   3.784   3.519  0.1641  0.5689  0.4772
   98EMI    H0F 1856   0.660   3.818   3.432 -1.7031  2.1315 -0.1365
   98EMI    C0N 1857   0.702   3.737   3.625  0.5936 -0.4618 -0.2555
   98EMI    H0O 1858   0.726   3.826   3.683 -1.1020  1.1072 -1.8013
   98EMI    H0P 1859   0.655   3.667   3.694 -1.1430  0.0749 -0.8298
   98EMI    H0Q 1860   0.790   3.697   3.577  0.5056  0.7030 -1.4413
   98EMI    N02 1861   0.492   3.873   3.556  0.1157 -0.1845  0.5723
   98EMI    H0E 1862   0.560   3.696   3.478 -0.0171  1.8128 -2.1810
   99EMI    C01 1863   2.719   2.409   4.411 -0.2550 -0.2476 -0.1185
   99EMI    C04 1864   2.881   2.359   4.272  0.0220 -0.6421  0.0545
   99EMI    C03 1865   2.876   2.494   4.281 -0.1028  0.1633  0.1817
   99EMI    H07 1866   2.636   2.391   4.475  0.1110 -2.0732 -0.1164
   99EMI    H09 1867   2.945   2.296   4.215 -0.4211 -2.1552  1.1763
   99EMI    H08 1868   2.939   2.571   4.242 -1.6361  0.7233 -1.3146
   99EMI    C05 1869   2.712   2.654   4.383 -0.8098  0.9529 -0.2226
   99EMI    H0B 1870   2.604   2.653   4.373 -0.5931  1.0969 -3.7749
   99EMI    H0C 1871   2.744   2.696   4.477 -0.5219  2.1026 -0.8261
   99EMI    H0D 1872   2.747   2.716   4.302  0.4960  2.0959  1.1622
   99EMI    N00 1873   2.768   2.520   4.363 -0.0646 -0.1724  0.2199
   99EMI    C06 1874   2.766   2.166   4.388  1.0079 -0.0578 -0.1224
   99EMI    H0F 1875   2.715   2.112   4.309  1.5084 -1.4447  0.4687
   99EMI    C0N 1876   2.893   2.097   4.422 -0.2071 -1.1021  0.3515
   99EMI    H0O 1877   2.869   1.999   4.462 -1.2605 -0.5471  1.1228
   99EMI    H0P 1878   2.962   2.083   4.339  1.9254 -2.5430  2.2444
   99EMI    H0Q 1879   2.951   2.153   4.495  0.2901 -0.8635 -0.2226
   99EMI    N02 1880   2.778   2.306   4.351  0.6349  0.3336  0.0232
   99EMI    H0E 1881   2.694   2.169   4.468  1.3012  0.6583  0.1206
  100EMI    C01 1882   3.087   0.209   4.526  0.1801  0.1695 -0.7678
  100EMI    C04 1883   2.905   0.299   4.443 -0.6045 -0.3218 -0.3085
  100EMI    C03 1884   3.001   0.298   4.349 -0.1503  0.1755 -0.5182
  100EMI    H07 1885   3.146   0.143   4.586 -1.5894 -0.4255  0.4174
  100EMI    H09 1886   2.806   0.338   4.443 -0.1135  1.0383  1.2496
  100EMI    H08 1887   2.988   0.325   4.246  0.2118 -1.2758 -0.9673
  100EMI    C05 1888   3.245   0.231   4.329  0.3667  0.4992  0.6049
  100EMI    H0B 1889   3.271   0.323   4.278 -0.2167  0.3281 -0.0111
  100EMI    H0C 1890   3.326   0.212   4.398  0.3672 -0.3435  0.3857
  100EMI    H0D 1891   3.240   0.151   4.257 -1.3216  0.8675  0.2687
  100EMI    N00 1892   3.119   0.250   4.404  0.3304  0.1711  0.4791
  100EMI    C06 1893   2.884   0.218   4.683 -0.4512 -0.6338 -0.2725
  100EMI    H0F 1894   2.945   0.161   4.750 -0.6221 -0.3364  0.1426
  100EMI    C0N 1895   2.843   0.343   4.757  0.5871 -0.5970 -0.1225
  100EMI    H0O 1896   2.929   0.407   4.775  0.7173 -1.0555  0.9753
  100EMI    H0P 1897   2.760   0.402   4.720  0.9912  1.4744  2.0986
  100EMI    H0Q 1898   2.807   0.319   4.856 -0.0626 -1.7377 -0.6077
  100EMI    N02 1899   2.964   0.251   4.559  0.0127  0.8669  0.0977
  100EMI    H0E 1900   2.801   0.154   4.658 -1.1416 -0.6616  1.8849
  101EMI    C01 1901   1.270   4.895   1.410 -0.9984 -0.3586 -0.2003
  101EMI    C04 1902   1.454   4.923   1.306 -0.2729 -0.0318  0.7266
  101EMI    C03 1903   1.375   5.029   1.293 -0.1126 -0.6831  0.8722
  101EMI    H07 1904   1.193   4.852   1.471 -0.2998  2.3019  2.9105
  101EMI    H09 1905   1.552   4.899   1.271  0.1596 -2.4558  3.2310
  101EMI    H08 1906   1.394   5.118   1.236  0.3191 -0.8745  0.7145
  101EMI    C05 1907   1.161   5.110   1.402  0.2847  0.1568 -0.4986
  101EMI    H0B 1908   1.175   5.202   1.347 -0.0217 -0.3345 -1.4223
  101EMI    H0C 1909   1.078   5.051   1.367 -0.6944  0.4283  1.2688
  101EMI    H0D 1910   1.162   5.138   1.506  4.0033 -0.7121 -0.1625
  101EMI    N00 1911   1.271   5.024   1.377 -0.6067  0.7698  0.2321
  101EMI    C06 1912   1.416   4.692   1.407 -1.1936  0.0247 -0.5409
  101EMI    H0F 1913   1.367   4.671   1.501 -1.7181  1.1122 -0.5557
  101EMI    C0N 1914   1.412   4.594   1.296 -0.3554  0.3415  0.2948
  101EMI    H0O 1915   1.484   4.637   1.227 -1.5492  1.2079 -0.4377
  101EMI    H0P 1916   1.437   4.492   1.324 -0.8957  0.6465  1.9637
  101EMI    H0Q 1917   1.313   4.596   1.252 -0.8273 -0.6692  1.2620
  101EMI    N02 1918   1.378   4.831   1.372  0.1278  0.3910 -0.2424
  101EMI    H0E 1919   1.516   4.672   1.441 -1.4836 -0.9383 -0.2124
  102EMI    C01 1920   3.415   3.534   2.310  0.3893 -0.0200  0.4250
  102EMI    C04 1921   3.334   3.584   2.502 -0.1584  0.5606  0.4668
  102EMI    C03 1922   3.411   3.473   2.517  0.0591  0.3351  0.0567
  102EMI    H07 1923   3.447   3.551   2.209 -1.7039 -2.1825 -0.7074
  102EMI    H09 1924   3.275   3.629   2.578  1.7851  0.8175  1.8894
  102EMI    H08 1925   3.438   3.411   2.599  0.7537  2.4088  1.4621
  102EMI    C05 1926   3.572   3.358   2.351  0.2030 -0.4091  0.2996
  102EMI    H0B 1927   3.620   3.299   2.427 -2.7395 -0.1956  2.4642
  102EMI    H0C 1928   3.531   3.283   2.285 -1.1735  0.2035  0.4288
  102EMI    H0D 1929   3.646   3.419   2.301 -0.7109  1.0665  0.6890
  102EMI    N00 1930   3.461   3.448   2.392 -0.2615  0.7958 -0.2281
  102EMI    C06 1931   3.230   3.696   2.294  0.5032 -0.3554 -0.6152
  102EMI    H0F 1932   3.229   3.661   2.192 -2.1349  1.0697 -1.1769
  102EMI    C0N 1933   3.089   3.690   2.349 -0.1837  0.0635 -0.9234
  102EMI    H0O 1934   3.092   3.737   2.446  0.5567 -0.7810 -0.5159
  102EMI    H0P 1935   3.016   3.736   2.283  0.6194  1.5158 -0.8399
  102EMI    H0Q 1936   3.069   3.585   2.369 -1.1768  0.6700  1.6651
  102EMI    N02 1937   3.324   3.614   2.370 -0.6350  0.3148 -0.0747
  102EMI    H0E 1938   3.263   3.798   2.289  1.4348 -0.6697 -1.1459
  103EMI    C01 1939   3.938   1.602   2.821 -0.0759 -0.2719  1.1775
  103EMI    C04 1940   3.858   1.647   2.623  1.0136  0.5764  0.2308
  103EMI    C03 1941   3.807   1.734   2.713  0.8726 -0.2427  0.7024
  103EMI    H07 1942   4.006   1.552   2.887  0.7839  0.6104  0.9858
  103EMI    H09 1943   3.853   1.653   2.517  1.0736 -2.0746  0.0194
  103EMI    H08 1944   3.746   1.820   2.695 -2.2020 -2.4990 -0.6061
  103EMI    C05 1945   3.846   1.772   2.961  0.3650 -0.1439 -0.0538
  103EMI    H0B 1946   3.905   1.861   2.972 -1.1224  1.0651 -1.3347
  103EMI    H0C 1947   3.745   1.794   2.994  0.9396  2.4028  0.2432
  103EMI    H0D 1948   3.893   1.705   3.032  0.9192  1.6654  1.3662
  103EMI    N00 1949   3.853   1.701   2.840  0.6983 -0.0014 -0.2351
  103EMI    C06 1950   4.027   1.470   2.621  0.5950 -0.3220 -0.2029
  103EMI    H0F 1951   4.100   1.432   2.691  0.9966  1.8848  0.6611
  103EMI    C0N 1952   3.939   1.361   2.558 -0.5072 -0.4428 -0.5436
  103EMI    H0O 1953   3.845   1.343   2.609 -0.4978  1.1750  0.1146
  103EMI    H0P 1954   3.923   1.370   2.451  1.4275 -0.6951 -0.8941
  103EMI    H0Q 1955   3.995   1.270   2.574 -2.6162 -1.1696  4.4386
  103EMI    N02 1956   3.945   1.565   2.692  0.5394 -0.6794  0.6674
  103EMI    H0E 1957   4.088   1.528   2.554  1.2210  0.2782  0.8526
  104EMI    C01 1958   4.124   4.703   0.850 -0.9393  1.3114 -0.1517
  104EMI    C04 1959   4.187   4.812   0.676  0.4366 -0.7498  0.0431
  104EMI    C03 1960   4.206   4.893   0.782  0.8439  0.7933 -0.4676
  104EMI    H07 1961   4.084   4.625   0.911 -0.2728  0.9561 -0.1621
  104EMI    H09 1962   4.195   4.839   0.573  0.6224  1.1251  0.5021
  104EMI    H08 1963   4.256   4.986   0.800 -0.2017  1.0028  1.7032
  104EMI    C05 1964   4.128   4.869   1.025 -0.0946  0.0479  0.2597
  104EMI    H0B 1965   4.210   4.928   1.062 -0.1162 -1.0317  2.2064
  104EMI    H0C 1966   4.047   4.939   1.019  1.7080  2.0940 -3.0538
  104EMI    H0D 1967   4.130   4.783   1.091  2.3775  1.0055  1.5548
  104EMI    N00 1968   4.156   4.816   0.891  0.0851 -0.3864 -0.2280
  104EMI    C06 1969   4.098   4.582   0.631 -0.0172  0.0833 -0.7174
  104EMI    H0F 1970   4.076   4.503   0.701  0.6509  1.9110  1.7272
  104EMI    C0N 1971   3.981   4.613   0.541 -0.3920  0.6644 -0.1703
  104EMI    H0O 1972   4.004   4.686   0.464  1.2138  1.1098  0.6801
  104EMI    H0P 1973   3.956   4.525   0.484 -1.4286  0.5872  0.3819
  104EMI    H0Q 1974   3.897   4.643   0.603  1.3161  2.0597  1.5934
  104EMI    N02 1975   4.135   4.694   0.717  0.3406 -0.8403 -0.8155
  104EMI    H0E 1976   4.185   4.547   0.578 -0.3757 -0.0860 -1.1932
  105EMI    C01 1977   4.499   0.899   1.009  0.9546  0.0378  0.3425
  105EMI    C04 1978   4.303   0.830   1.061  0.1877  0.2842  0.3901
  105EMI    C03 1979   4.388   0.736   1.103  0.2922 -0.4629 -0.1945
  105EMI    H07 1980   4.574   0.962   0.968  0.1800 -0.3303 -1.7695
  105EMI    H09 1981   4.196   0.828   1.058  0.2188 -0.3923 -1.0476
  105EMI    H08 1982   4.346   0.653   1.154 -3.8950  2.0285  0.9386
  105EMI    C05 1983   4.642   0.733   1.113 -0.0314  0.3588  0.7148
  105EMI    H0B 1984   4.642   0.625   1.106 -0.1460  0.3906  0.2331
  105EMI    H0C 1985   4.723   0.777   1.056 -0.9138 -1.2506 -1.9650
  105EMI    H0D 1986   4.652   0.749   1.220  0.5213  0.9060  0.5876
  105EMI    N00 1987   4.514   0.786   1.068  0.6875  0.5965  0.5218
  105EMI    C06 1988   4.318   1.045   0.919 -0.1001 -0.7298  0.8672
  105EMI    H0F 1989   4.321   1.014   0.816 -2.0558  2.1011 -0.1621
  105EMI    C0N 1990   4.173   1.080   0.944 -1.1365 -0.3003  0.6798
  105EMI    H0O 1991   4.127   1.074   1.042 -0.6929  0.4160  0.9437
  105EMI    H0P 1992   4.167   1.185   0.918  0.9213 -0.5114 -0.9980
  105EMI    H0Q 1993   4.117   1.025   0.870  1.9516 -2.5876 -0.1915
  105EMI    N02 1994   4.374   0.921   0.988  0.0624  0.2688  0.8696
  105EMI    H0E 1995   4.385   1.128   0.936 -0.2016 -0.7822  1.5474
  106EMI    C01 1996   3.754   0.189   3.869  0.4564  0.2098  0.2562
  106EMI    C04 1997   3.619   0.082   3.995 -0.3978 -0.2318 -0.0408
  106EMI    C03 1998   3.626   0.208   4.043  0.6103 -0.3694 -0.1575
  106EMI    H07 1999   3.820   0.225   3.793  1.8876 -0.6520  1.0480
  106EMI    H09 2000   3.559   0.006   4.039 -1.5835 -0.9193 -2.6914
  106EMI    H08 2001   3.584   0.246   4.134 -0.4802  0.7061 -1.0810
  106EMI    C05 2002   3.716   0.424   3.946  0.0417  0.7479  0.4821
  106EMI    H0B 2003   3.627   0.482   3.925 -0.3551 -0.7465 -2.4089
  106EMI    H0C 2004   3.748   0.456   4.044 -2.2394 -0.3192  1.6475
  106EMI    H0D 2005   3.793   0.451   3.876  0.2940  0.5869  0.6978
  106EMI    N00 2006   3.696   0.276   3.948 -0.1395 -0.8708  0.3746
  106EMI    C06 2007   3.712  -0.050   3.806  0.5181 -0.4849 -0.5064
  106EMI    H0F 2008   3.765  -0.108   3.880 -0.0979  0.2736  0.5584
  106EMI    C0N 2009   3.586  -0.125   3.752 -0.0670  0.2368  0.4576
  106EMI    H0O 2010   3.549  -0.094   3.655  0.1657 -1.4136 -0.1880
  106EMI    H0P 2011   3.619  -0.228   3.744 -0.8231 -0.1643  2.0095
  106EMI    H0Q 2012   3.507  -0.114   3.826  0.4922  0.6151  1.0102
  106EMI    N02 2013   3.699   0.072   3.885  0.2942  0.1839  0.0412
  106EMI    H0E 2014   3.773  -0.020   3.722 -0.6874  0.9312 -0.9179
  107EMI    C01 2015   2.978   3.120   3.951 -0.7366 -0.0248  0.8769
  107EMI    C04 2016   2.931   3.141   3.741  1.0586 -0.0855  0.4075
  107EMI    C03 2017   2.814   3.135   3.808 -0.0626  0.1109  0.2845
  107EMI    H07 2018   3.036   3.099   4.038 -1.7052 -0.5403  1.4072
  107EMI    H09 2019   2.945   3.154   3.636  1.3054 -0.1283  0.4351
  107EMI    H08 2020   2.713   3.156   3.781 -1.0151 -2.5313  1.4179
  107EMI    C05 2021   2.752   3.075   4.047 -0.0338  0.0482 -0.4752
  107EMI    H0B 2022   2.796   3.027   4.133 -0.4234  1.2920  0.4593
  107EMI    H0C 2023   2.715   3.170   4.084  0.2945  0.1485 -0.3973
  107EMI    H0D 2024   2.675   3.011   4.006  0.0251 -0.2133 -0.1822
  107EMI    N00 2025   2.849   3.114   3.943  0.0887  0.2075  0.8525
  107EMI    C06 2026   3.178   3.107   3.799  0.2578  0.4906 -0.8916
  107EMI    H0F 2027   3.181   3.092   3.692  0.2685 -1.9802 -0.5950
  107EMI    C0N 2028   3.256   3.221   3.847  0.2968 -0.2073  0.0037
  107EMI    H0O 2029   3.218   3.321   3.831 -1.2830 -0.2398  2.9651
  107EMI    H0P 2030   3.261   3.217   3.955  0.2381 -0.4380 -0.0018
  107EMI    H0Q 2031   3.358   3.217   3.811 -0.2731  1.4139 -1.9169
  107EMI    N02 2032   3.034   3.131   3.833  0.2662  0.2058  0.1911
  107EMI    H0E 2033   3.191   3.007   3.838 -3.9791  0.2344  0.3260
  108EMI    C01 2034   2.784   4.259   3.934  0.2880  0.3740  0.9104
  108EMI    C04 2035   2.874   4.389   4.078  0.0612  0.1411 -0.3201
  108EMI    C03 2036   2.925   4.264   4.099 -0.5596 -0.1580  0.5516
  108EMI    H07 2037   2.737   4.211   3.851  0.6833 -0.4855  1.1752
  108EMI    H09 2038   2.886   4.477   4.138 -1.7804 -0.5748  1.1857
  108EMI    H08 2039   3.002   4.242   4.170  0.2708  1.2783  0.1378
  108EMI    C05 2040   2.878   4.029   3.996 -0.1945 -0.7876 -0.0449
  108EMI    H0B 2041   2.835   3.991   3.905  0.9099 -2.0161 -0.0649
  108EMI    H0C 2042   2.983   4.008   4.010 -0.0882 -0.4098 -0.2526
  108EMI    H0D 2043   2.830   3.990   4.085 -1.6627  2.1486  0.5836
  108EMI    N00 2044   2.868   4.179   4.004 -0.0429 -0.9429 -0.1647
  108EMI    C06 2045   2.680   4.480   3.936  0.7989 -0.1056 -0.1752
  108EMI    H0F 2046   2.616   4.435   3.861  1.1924 -1.1753  0.1130
  108EMI    C0N 2047   2.598   4.533   4.051 -0.1375  1.0230  0.1767
  108EMI    H0O 2048   2.647   4.602   4.118 -0.1653  0.3135  0.9424
  108EMI    H0P 2049   2.516   4.593   4.013 -0.9510 -0.1710 -0.0154
  108EMI    H0Q 2050   2.560   4.456   4.117  1.9529  0.6942  1.0866
  108EMI    N02 2051   2.777   4.379   3.979  0.0797 -0.2049 -0.2409
  108EMI    H0E 2052   2.743   4.557   3.893  1.8300  1.1919  3.3093
  109EMI    C01 2053   2.972   3.786   1.450  0.0983 -0.0518 -0.0730
  109EMI    C04 2054   3.150   3.691   1.370 -0.1964 -0.0347  0.6487
  109EMI    C03 2055   3.121   3.624   1.480  0.5690 -0.6425 -0.1598
  109EMI    H07 2056   2.899   3.861   1.470  0.4207  0.1274  0.4580
  109EMI    H09 2057   3.237   3.681   1.309  0.6444 -4.4725  2.1786
  109EMI    H08 2058   3.178   3.551   1.532  0.6535 -1.8020 -1.8097
  109EMI    C05 2059   2.933   3.641   1.651 -0.2803 -0.0761 -0.1574
  109EMI    H0B 2060   3.005   3.650   1.730 -0.5104  3.6567 -0.2019
  109EMI    H0C 2061   2.852   3.709   1.674 -1.4380 -1.4792  0.0822
  109EMI    H0D 2062   2.894   3.541   1.638 -1.3943  0.0775  1.6863
  109EMI    N00 2063   3.004   3.681   1.524  0.7479  0.0046  0.1871
  109EMI    C06 2064   3.062   3.883   1.230 -0.4592 -0.1057  0.1595
  109EMI    H0F 2065   3.021   3.978   1.261  3.4774  1.7107  0.3822
  109EMI    C0N 2066   3.205   3.916   1.191  0.4856 -0.7082 -0.0564
  109EMI    H0O 2067   3.244   3.830   1.139 -1.2134 -1.1950 -0.6107
  109EMI    H0P 2068   3.215   4.005   1.131  0.2654 -1.0524 -0.6157
  109EMI    H0Q 2069   3.263   3.937   1.280  0.0436 -0.3645  0.1528
  109EMI    N02 2070   3.055   3.790   1.344 -0.4441 -0.0344 -0.6948
  109EMI    H0E 2071   3.009   3.840   1.146  0.0903 -1.0276  0.2670
  110EMI    C01 2072   4.889   4.064   2.801 -0.2096  0.3036 -0.0325
  110EMI    C04 2073   4.914   4.241   2.660 -0.1052 -0.5275 -0.4118
  110EMI    C03 2074   4.946   4.273   2.786 -0.1714 -0.5981 -0.0701
  110EMI    H07 2075   4.891   3.964   2.839  0.3388  0.9626  1.8049
  110EMI    H09 2076   4.905   4.289   2.566 -0.8626 -0.0498 -0.1000
  110EMI    H08 2077   4.974   4.372   2.815  0.1400 -1.1361  1.5988
  110EMI    C05 2078   4.965   4.173   3.010 -0.2361  0.2788 -0.2031
  110EMI    H0B 2079   5.066   4.144   3.036 -0.1604  2.3990  2.3246
  110EMI    H0C 2080   4.933   4.254   3.074  0.8703 -0.4199  1.3040
  110EMI    H0D 2081   4.916   4.086   3.051  0.7072  0.0324  0.4422
  110EMI    N00 2082   4.927   4.170   2.870 -0.0709 -0.0394 -0.0086
  110EMI    C06 2083   4.842   4.019   2.554 -0.1281 -0.2497 -0.7039
  110EMI    H0F 2084   4.903   3.931   2.540 -1.8047 -1.7249  0.7115
  110EMI    C0N 2085   4.689   3.998   2.535 -0.3539  0.2427  0.1055
  110EMI    H0O 2086   4.651   4.096   2.507 -2.0554  0.1525  1.8863
  110EMI    H0P 2087   4.669   3.933   2.451 -1.8684  1.9377 -0.9138
  110EMI    H0Q 2088   4.640   3.963   2.625  0.6103 -2.9893 -0.5068
  110EMI    N02 2089   4.885   4.102   2.670  0.2812 -0.2579 -0.2898
  110EMI    H0E 2090   4.884   4.083   2.478  3.8251  1.0386  2.2358
  111EMI    C01 2091   3.447   2.416   2.046  0.7125  0.1464  0.0898
  111EMI    C04 2092   3.510   2.602   2.146 -0.7825 -0.7829 -0.2787
  111EMI    C03 2093   3.593   2.503   2.178 -0.2921 -0.2460 -0.5096
  111EMI    H07 2094   3.380   2.347   1.999 -0.1280  0.4038  0.8865
  111EMI    H09 2095   3.530   2.700   2.183  0.6923 -1.4798  0.8879
  111EMI    H08 2096   3.674   2.510   2.247 -1.3284  1.2030  0.6074
  111EMI    C05 2097   3.628   2.264   2.102  0.5538 -0.1448  0.0406
  111EMI    H0B 2098   3.679   2.248   2.196 -1.5839 -1.3158  1.0689
  111EMI    H0C 2099   3.572   2.173   2.092 -0.0443  0.4281 -2.7122
  111EMI    H0D 2100   3.698   2.276   2.020 -0.4482  1.0056 -0.6833
  111EMI    N00 2101   3.554   2.389   2.119 -0.3583 -0.1176  0.2012
  111EMI    C06 2102   3.276   2.600   2.053  0.0742 -0.7707 -0.4698
  111EMI    H0F 2103   3.204   2.524   2.023 -0.7281  1.3726 -4.6923
  111EMI    C0N 2104   3.245   2.665   2.182 -0.2774  0.1481 -0.3683
  111EMI    H0O 2105   3.295   2.758   2.208 -1.7574  0.7197  0.5141
  111EMI    H0P 2106   3.142   2.697   2.179  0.5384  3.0457 -2.9621
  111EMI    H0Q 2107   3.265   2.590   2.258 -2.6587 -0.2343 -0.0565
  111EMI    N02 2108   3.407   2.542   2.073 -0.2047  0.6447 -0.4274
  111EMI    H0E 2109   3.293   2.672   1.975  3.1669 -0.3317  0.4802
  112EMI    C01 2110   2.470   0.011   0.954 -0.1550 -0.0226  0.0705
  112EMI    C04 2111   2.286  -0.097   1.011 -0.2786  0.6470 -0.6703
  112EMI    C03 2112   2.305   0.005   1.093 -0.2434  0.0329 -0.8276
  112EMI    H07 2113   2.569   0.032   0.920 -0.6311  0.1954 -1.2543
  112EMI    H09 2114   2.210  -0.172   1.014 -0.0393  0.4261  1.5257
  112EMI    H08 2115   2.242   0.037   1.173 -0.6669 -0.7987 -0.8181
  112EMI    C05 2116   2.477   0.199   1.111  0.3405  0.0445  0.0205
  112EMI    H0B 2117   2.400   0.275   1.107  0.4448  0.1042 -2.1955
  112EMI    H0C 2118   2.522   0.181   1.208 -0.0777  0.7283  0.3525
  112EMI    H0D 2119   2.561   0.228   1.050  1.3797 -2.0422  0.3568
  112EMI    N00 2120   2.416   0.077   1.053  0.3067 -0.4214 -0.2515
  112EMI    C06 2121   2.412  -0.187   0.816 -0.0559  0.0346 -0.3982
  112EMI    H0F 2122   2.499  -0.147   0.766 -1.3200  3.3805 -0.2079
  112EMI    C0N 2123   2.420  -0.330   0.872  0.1471  0.0081  0.0393
  112EMI    H0O 2124   2.496  -0.360   0.944  0.2507  0.0470 -0.0534
  112EMI    H0P 2125   2.320  -0.350   0.909 -0.2898  1.5734 -0.2410
  112EMI    H0Q 2126   2.444  -0.388   0.784 -1.7317 -0.8834  0.0770
  112EMI    N02 2127   2.393  -0.094   0.926 -0.0659 -0.3406  0.0655
  112EMI    H0E 2128   2.334  -0.169   0.743 -0.9763  1.5168  0.8823
  113EMI    C01 2129   0.709   0.220   1.038 -0.5355 -0.2778  0.1229
  113EMI    C04 2130   0.770   0.364   0.891  0.4808 -0.3404 -0.2011
  113EMI    C03 2131   0.857   0.269   0.889 -0.3091 -0.0151  0.2854
  113EMI    H07 2132   0.654   0.167   1.113  1.9339 -1.3030  1.3196
  113EMI    H09 2133   0.771   0.456   0.836  2.1768  0.8197  1.6268
  113EMI    H08 2134   0.947   0.262   0.832 -1.4426  0.3982 -1.6328
  113EMI    C05 2135   0.887   0.046   0.990 -0.7575 -0.1477 -0.3384
  113EMI    H0B 2136   0.981   0.058   1.041 -1.4893 -1.7966  1.5457
  113EMI    H0C 2137   0.823  -0.026   1.039  1.6331 -1.3396  1.2161
  113EMI    H0D 2138   0.904  -0.001   0.894 -1.6378  1.6119 -1.3844
  113EMI    N00 2139   0.823   0.177   0.981 -0.0406 -0.1006  0.3631
  113EMI    C06 2140   0.556   0.419   1.016  0.1721 -0.9422  0.2728
  113EMI    H0F 2141   0.489   0.410   0.932  1.0377 -1.5925 -0.3720
  113EMI    C0N 2142   0.488   0.384   1.146  0.6614  0.4357  0.3254
  113EMI    H0O 2143   0.390   0.427   1.161 -1.2292 -3.1079 -0.6453
  113EMI    H0P 2144   0.475   0.276   1.137  1.8078  0.3077  0.0130
  113EMI    H0Q 2145   0.546   0.404   1.235  0.1683  1.6433  0.3967
  113EMI    N02 2146   0.672   0.338   0.984 -0.8019 -0.6106  0.1619
  113EMI    H0E 2147   0.597   0.518   1.027  0.3945 -0.8823 -0.9197
  114EMI    C01 2148   4.598   5.075   4.826  0.1077 -0.2140  0.3593
  114EMI    C04 2149   4.473   4.936   4.943 -0.5106  0.3885  0.1361
  114EMI    C03 2150   4.564   4.865   4.877  0.5815 -0.7458 -0.1583
  114EMI    H07 2151   4.641   5.165   4.788 -2.5474  1.3265  0.6835
  114EMI    H09 2152   4.402   4.909   5.019  0.6181  2.7254  2.1621
  114EMI    H08 2153   4.581   4.760   4.881 -2.1863 -1.3790 -1.8495
  114EMI    C05 2154   4.736   4.909   4.704  0.5419  0.6881  0.2378
  114EMI    H0B 2155   4.697   4.836   4.635 -0.1651 -0.6756  1.9979
  114EMI    H0C 2156   4.777   4.994   4.651 -1.1789  1.6947  0.4468
  114EMI    H0D 2157   4.814   4.862   4.761  1.9249  1.3786 -1.0045
  114EMI    N00 2158   4.634   4.952   4.796 -0.1832 -0.3808  0.6134
  114EMI    C06 2159   4.421   5.180   4.973 -0.4963  0.2370 -0.3268
  114EMI    H0F 2160   4.322   5.186   4.930 -1.2584 -3.3505  0.6254
  114EMI    C0N 2161   4.430   5.155   5.120  0.1009 -0.7579 -0.4834
  114EMI    H0O 2162   4.527   5.134   5.164 -0.0143  2.9852  1.9820
  114EMI    H0P 2163   4.409   5.253   5.161 -2.0557 -0.4027 -2.2624
  114EMI    H0Q 2164   4.350   5.093   5.159 -2.7184  1.7330 -1.9003
  114EMI    N02 2165   4.498   5.070   4.915  0.0821 -0.4420 -0.1628
  114EMI    H0E 2166   4.471   5.273   4.950  0.9435 -0.1901  0.9581
  115EMI    C01 2167   1.834   2.972   3.036  0.1570  0.3865  0.2212
  115EMI    C04 2168   1.621   2.977   2.992  0.3737 -0.0863  0.3823
  115EMI    C03 2169   1.652   2.863   3.042  0.5245 -0.2334 -0.8458
  115EMI    H07 2170   1.932   3.013   3.032  0.8142 -1.1276  0.2294
  115EMI    H09 2171   1.531   3.026   2.964  0.6932 -0.1932 -0.8911
  115EMI    H08 2172   1.578   2.787   3.057  0.2798 -0.2924 -2.2587
  115EMI    C05 2173   1.857   2.747   3.138 -0.2052  0.5688 -0.1930
  115EMI    H0B 2174   1.822   2.732   3.240 -1.1175 -1.2422 -0.7320
  115EMI    H0C 2175   1.837   2.648   3.101  2.7202 -0.8436  1.6040
  115EMI    H0D 2176   1.964   2.749   3.131 -0.1920 -0.1016 -0.2279
  115EMI    N00 2177   1.783   2.859   3.078  0.4735 -0.3416 -0.2413
  115EMI    C06 2178   1.746   3.187   2.942  0.0831 -0.3660 -0.0193
  115EMI    H0F 2179   1.683   3.212   2.858  2.1090 -1.0291 -1.8340
  115EMI    C0N 2180   1.721   3.276   3.058  0.8261 -0.0508  0.2054
  115EMI    H0O 2181   1.799   3.249   3.128  1.1512  0.5265  0.0738
  115EMI    H0P 2182   1.738   3.372   3.011  0.9226 -1.2328 -2.2947
  115EMI    H0Q 2183   1.627   3.277   3.113 -0.0000 -0.6740 -1.1476
  115EMI    N02 2184   1.733   3.050   2.989 -0.7333  0.3901 -0.5508
  115EMI    H0E 2185   1.847   3.196   2.906 -0.3694  1.6487 -0.9140
  116EMI    C01 2186   3.183   1.882   4.244 -0.0948  0.4790  0.3150
  116EMI    C04 2187   3.222   1.701   4.125 -0.4039 -0.3770 -0.1818
  116EMI    C03 2188   3.248   1.812   4.049 -0.3103 -0.0559 -0.7720
  116EMI    H07 2189   3.175   1.932   4.339  1.0786  1.4512 -0.0622
  116EMI    H09 2190   3.238   1.600   4.094 -0.0401  0.2661 -2.2545
  116EMI    H08 2191   3.281   1.823   3.948 -1.7912  0.5633 -1.2137
  116EMI    C05 2192   3.230   2.062   4.089 -0.4382 -0.1184  0.3095
  116EMI    H0B 2193   3.143   2.118   4.120 -1.0813 -0.8992 -0.0602
  116EMI    H0C 2194   3.325   2.108   4.111  0.3803 -2.4809  2.1195
  116EMI    H0D 2195   3.206   2.060   3.984 -0.7092 -1.1812  0.3832
  116EMI    N00 2196   3.218   1.924   4.128  0.1909  0.0668  0.4647
  116EMI    C06 2197   3.143   1.653   4.360 -0.7328 -0.5695 -0.1404
  116EMI    H0F 2198   3.233   1.642   4.419 -0.0542  0.8961 -0.8638
  116EMI    C0N 2199   3.017   1.703   4.438  0.0296  0.0990 -1.2125
  116EMI    H0O 2200   3.034   1.796   4.493  0.8495  0.6502 -2.3464
  116EMI    H0P 2201   2.931   1.721   4.375  0.1653  1.9392 -0.9339
  116EMI    H0Q 2202   3.002   1.618   4.503  2.1677  0.1078 -0.6136
  116EMI    N02 2203   3.186   1.748   4.250 -0.3156  0.1253  0.1435
  116EMI    H0E 2204   3.123   1.556   4.317 -2.3302 -0.4419  0.2437
  117EMI    C01 2205   2.135   4.266   0.505 -0.0735  0.5216 -0.1654
  117EMI    C04 2206   2.290   4.239   0.656 -0.0032  1.0966 -0.2102
  117EMI    C03 2207   2.305   4.144   0.565  0.3658 -0.1460  0.5144
  117EMI    H07 2208   2.052   4.303   0.450  0.0608 -1.7325 -2.0167
  117EMI    H09 2209   2.350   4.267   0.739 -0.3468 -1.9559  1.1855
  117EMI    H08 2210   2.382   4.071   0.549 -0.7076 -0.7033 -2.8446
  117EMI    C05 2211   2.166   4.069   0.360  0.1703 -0.0883  1.0018
  117EMI    H0B 2212   2.167   3.967   0.396  1.9305 -0.0945  0.9956
  117EMI    H0C 2213   2.080   4.098   0.301  2.3747 -0.4277 -2.6930
  117EMI    H0D 2214   2.243   4.078   0.285  0.1882 -0.4716  0.9707
  117EMI    N00 2215   2.204   4.158   0.472  0.5351  0.0655  0.1400
  117EMI    C06 2216   2.123   4.433   0.690  0.2950 -0.2325  0.4011
  117EMI    H0F 2217   2.072   4.416   0.784  2.4073  0.6752  1.7939
  117EMI    C0N 2218   2.235   4.534   0.734 -0.6438  0.1082 -0.2636
  117EMI    H0O 2219   2.189   4.630   0.755  0.5398  0.8339 -0.9137
  117EMI    H0P 2220   2.308   4.510   0.810 -2.0763 -1.0038  0.8341
  117EMI    H0Q 2221   2.297   4.547   0.646 -2.4292 -0.7309 -1.7028
  117EMI    N02 2222   2.178   4.316   0.620 -0.1218  0.4762  0.1130
  117EMI    H0E 2223   2.060   4.475   0.614 -1.0607 -0.0927  1.5632
  118EMI    C01 2224   0.753   3.534   4.432  0.1454  0.8154  0.6089
  118EMI    C04 2225   0.756   3.730   4.351  0.2350 -0.5368 -0.2452
  118EMI    C03 2226   0.864   3.717   4.424 -0.7001  0.4151 -0.8006
  118EMI    H07 2227   0.718   3.438   4.462  0.9195  0.2970 -0.0724
  118EMI    H09 2228   0.724   3.814   4.293  3.5251  2.1059  1.3654
  118EMI    H08 2229   0.947   3.778   4.452 -0.5486 -0.3519  0.5362
  118EMI    C05 2230   0.965   3.523   4.564 -0.5895 -0.1453 -0.3225
  118EMI    H0B 2231   0.993   3.419   4.557  4.3688  0.7718  1.2174
  118EMI    H0C 2232   1.057   3.579   4.550 -0.7858  0.2976  0.1278
  118EMI    H0D 2233   0.930   3.538   4.665 -1.4928 -1.4579 -0.4135
  118EMI    N00 2234   0.865   3.582   4.471  0.1888 -0.4377  0.3016
  118EMI    C06 2235   0.563   3.576   4.283 -0.5519  0.0358 -0.2405
  118EMI    H0F 2236   0.531   3.483   4.328 -1.6872  0.3428 -0.3801
  118EMI    C0N 2237   0.458   3.685   4.270 -0.0884  0.0522  0.2987
  118EMI    H0O 2238   0.496   3.786   4.261 -1.2594  0.6250  1.3865
  118EMI    H0P 2239   0.401   3.656   4.182 -0.7449  0.0640  0.7134
  118EMI    H0Q 2240   0.407   3.689   4.365  1.9048  0.2293  1.4157
  118EMI    N02 2241   0.692   3.612   4.350 -0.1551  0.2087  0.4199
  118EMI    H0E 2242   0.601   3.556   4.184  2.1235  0.6548  0.5876
  119EMI    C01 2243   4.583   0.016   3.869 -0.0481  0.2064 -0.1148
  119EMI    C04 2244   4.497   0.208   3.808  0.1715 -0.2800 -1.0149
  119EMI    C03 2245   4.620   0.203   3.764 -0.1110 -0.4899  0.6777
  119EMI    H07 2246   4.603  -0.072   3.927 -1.9478 -0.5877 -0.5749
  119EMI    H09 2247   4.419   0.280   3.795  0.7820  0.4090 -0.9682
  119EMI    H08 2248   4.677   0.262   3.695  0.5633 -1.4517  0.3885
  119EMI    C05 2249   4.821   0.048   3.778  0.6639 -0.3459  0.2007
  119EMI    H0B 2250   4.883   0.126   3.819 -0.8823  2.9620 -3.1954
  119EMI    H0C 2251   4.836  -0.051   3.819 -0.4911 -0.5157  0.2490
  119EMI    H0D 2252   4.841   0.048   3.672  1.8084 -2.9613  0.3413
  119EMI    N00 2253   4.679   0.083   3.806 -0.4185  0.0533 -0.1195
  119EMI    C06 2254   4.359   0.052   3.949  0.5422 -0.5650 -0.6229
  119EMI    H0F 2255   4.302   0.142   3.970 -0.0218 -0.9049 -0.6831
  119EMI    C0N 2256   4.278  -0.058   3.886 -0.0877  0.3596 -0.4904
  119EMI    H0O 2257   4.194  -0.086   3.948 -1.5856  0.9124 -2.1853
  119EMI    H0P 2258   4.232  -0.037   3.790 -4.5796 -0.9925  1.1062
  119EMI    H0Q 2259   4.337  -0.146   3.866  1.0046  1.0350 -0.3575
  119EMI    N02 2260   4.476   0.088   3.875 -0.0205  0.3697 -0.1119
  119EMI    H0E 2261   4.385   0.024   4.050 -0.3614  0.6824 -0.0084
  120EMI    C01 2262   2.201   1.333   4.181  0.8625 -0.2447  0.2640
  120EMI    C04 2263   2.131   1.179   4.044  0.3927 -0.1954  0.7241
  120EMI    C03 2264   2.256   1.156   4.070 -0.3967 -0.1228 -0.2089
  120EMI    H07 2265   2.202   1.422   4.241  0.5858  0.6344 -0.9923
  120EMI    H09 2266   2.061   1.134   3.977 -0.7813  0.4935  1.4568
  120EMI    H08 2267   2.323   1.091   4.019  2.7346  2.2527  0.5444
  120EMI    C05 2268   2.441   1.271   4.220 -0.2138  0.3105  0.3006
  120EMI    H0B 2269   2.434   1.339   4.303 -1.1627  0.5528  0.0362
  120EMI    H0C 2270   2.490   1.178   4.245  0.9073  0.9534  0.5689
  120EMI    H0D 2271   2.513   1.318   4.155  1.7526 -0.5037  1.7811
  120EMI    N00 2272   2.302   1.257   4.163  0.0257  0.9956 -0.5776
  120EMI    C06 2273   1.968   1.358   4.101  0.4965  0.1988 -0.2762
  120EMI    H0F 2274   1.891   1.284   4.084 -0.4520  1.5784 -2.3471
  120EMI    C0N 2275   1.932   1.438   4.227  0.0073  0.8284  0.2257
  120EMI    H0O 2276   1.985   1.532   4.242  2.8056  0.0157 -3.1380
  120EMI    H0P 2277   1.832   1.478   4.219 -0.5593 -0.2486  1.4832
  120EMI    H0Q 2278   1.937   1.376   4.316  0.5710  0.3662 -0.1161
  120EMI    N02 2279   2.097   1.289   4.111  0.6168 -0.1763 -0.1398
  120EMI    H0E 2280   1.985   1.431   4.023  0.2708  2.4108  1.6238
  121EMI    C01 2281   3.128   0.620   1.965 -0.2751  0.6172  0.0143
  121EMI    C04 2282   3.331   0.667   1.892  0.1771  0.9208 -0.6552
  121EMI    C03 2283   3.267   0.786   1.909  0.3061  0.7607  0.2174
  121EMI    H07 2284   3.055   0.551   2.001  0.0255  0.5065  0.4217
  121EMI    H09 2285   3.431   0.646   1.859  0.1450 -1.1520  0.3478
  121EMI    H08 2286   3.300   0.886   1.897  0.6113  0.5479 -0.7876
  121EMI    C05 2287   3.036   0.855   1.997  0.3555  0.5345  0.1970
  121EMI    H0B 2288   2.989   0.829   2.091  0.2975 -0.4674 -0.0978
  121EMI    H0C 2289   3.071   0.956   1.990 -1.2583  1.1035 -0.0904
  121EMI    H0D 2290   2.950   0.849   1.931  2.0690 -0.2513 -2.1209
  121EMI    N00 2291   3.138   0.755   1.956 -0.0263 -0.7537  0.7992
  121EMI    C06 2292   3.267   0.419   1.917  0.3459  0.0434 -0.2839
  121EMI    H0F 2293   3.286   0.370   1.823  1.4573 -1.1105  0.5073
  121EMI    C0N 2294   3.387   0.380   2.008 -0.0923  0.2821 -0.1831
  121EMI    H0O 2295   3.416   0.456   2.079 -0.6935 -1.3046  1.8643
  121EMI    H0P 2296   3.345   0.298   2.065  2.0195 -1.6852 -1.2753
  121EMI    H0Q 2297   3.476   0.360   1.950 -1.2197  1.3731 -2.4150
  121EMI    N02 2298   3.241   0.563   1.919 -0.4630 -0.1493  0.6025
  121EMI    H0E 2299   3.175   0.378   1.955 -1.5048  2.7595 -1.5139
  122EMI    C01 2300   3.762   3.788   4.605  0.0144  0.6595  0.6416
  122EMI    C04 2301   3.611   3.655   4.509 -0.1396 -0.2903 -0.4501
  122EMI    C03 2302   3.600   3.774   4.455  0.3201 -0.0948  0.0859
  122EMI    H07 2303   3.833   3.826   4.676  0.0909 -0.1757  1.0265
  122EMI    H09 2304   3.561   3.561   4.503 -1.2476  0.0087  2.3098
  122EMI    H08 2305   3.531   3.812   4.384  0.2698  1.3914  0.8863
  122EMI    C05 2306   3.738   3.995   4.462 -0.3312 -0.0170 -0.4352
  122EMI    H0B 2307   3.791   3.991   4.368  1.2190  1.7739  0.2739
  122EMI    H0C 2308   3.653   4.057   4.438  0.4568  0.3680 -2.3800
  122EMI    H0D 2309   3.803   4.038   4.537 -1.5170 -0.4840  0.9084
  122EMI    N00 2310   3.694   3.856   4.512 -0.1406  0.2103 -0.5038
  122EMI    C06 2311   3.737   3.571   4.714  0.2849 -0.2371  0.0223
  122EMI    H0F 2312   3.805   3.633   4.772  2.7012  0.1149 -2.9253
  122EMI    C0N 2313   3.612   3.524   4.803 -0.5822 -0.0150 -0.2733
  122EMI    H0O 2314   3.643   3.494   4.903  0.4964  0.1672 -0.5382
  122EMI    H0P 2315   3.537   3.601   4.815 -0.3915  0.1620 -0.2004
  122EMI    H0Q 2316   3.557   3.442   4.759 -1.8289 -1.1319  3.0605
  122EMI    N02 2317   3.701   3.673   4.613 -0.5461  0.3046 -0.3298
  122EMI    H0E 2318   3.785   3.487   4.666 -2.3563 -1.3304 -0.8979
  123EMI    C01 2319   0.873   2.106   1.910 -0.4853  0.0934 -0.6392
  123EMI    C04 2320   0.999   2.265   1.824  0.1470 -0.1974 -0.4681
  123EMI    C03 2321   1.060   2.149   1.811  0.4116 -0.1663 -0.0343
  123EMI    H07 2322   0.783   2.063   1.949 -0.5454  0.6479 -0.1551
  123EMI    H09 2323   1.028   2.365   1.797  0.4428 -0.0762  0.2682
  123EMI    H08 2324   1.153   2.131   1.762  0.8183 -1.2719  1.0860
  123EMI    C05 2325   1.009   1.905   1.853 -0.4095 -0.3803 -0.0663
  123EMI    H0B 2326   0.922   1.854   1.815 -0.3774  0.2079 -0.9455
  123EMI    H0C 2327   1.074   1.900   1.767 -2.2335  1.1172 -1.6343
  123EMI    H0D 2328   1.034   1.855   1.945 -0.5216 -2.2148 -0.9790
  123EMI    N00 2329   0.978   2.047   1.863 -0.1988 -0.4146 -0.7643
  123EMI    C06 2330   0.788   2.335   1.963 -0.0750 -0.4838 -0.1244
  123EMI    H0F 2331   0.722   2.274   2.023  0.5695 -0.5706  0.5113
  123EMI    C0N 2332   0.865   2.435   2.053  0.1954  0.5095 -0.1821
  123EMI    H0O 2333   0.796   2.503   2.103  0.5426  1.7414 -1.3210
  123EMI    H0P 2334   0.895   2.387   2.146 -0.1036  0.5751 -0.0505
  123EMI    H0Q 2335   0.952   2.491   2.021  0.1962  0.6028 -0.0214
  123EMI    N02 2336   0.885   2.238   1.900  0.2917 -0.2886  0.8750
  123EMI    H0E 2337   0.740   2.378   1.876  0.8349 -0.2237 -0.5120
  124EMI    C01 2338   0.578   1.389   3.631  0.3382  0.0377  0.0418
  124EMI    C04 2339   0.756   1.347   3.523  0.1587 -0.0216  0.0402
  124EMI    C03 2340   0.717   1.465   3.477  0.2897  0.5439  0.2852
  124EMI    H07 2341   0.492   1.389   3.695  0.8410  0.3359  0.7306
  124EMI    H09 2342   0.831   1.277   3.495 -0.6603 -0.4478 -1.1885
  124EMI    H08 2343   0.759   1.534   3.407 -0.1945  0.5877  0.0393
  124EMI    C05 2344   0.500   1.595   3.518  0.4833  0.6109 -0.3163
  124EMI    H0B 2345   0.461   1.620   3.615 -1.2268 -1.6741 -0.3363
  124EMI    H0C 2346   0.542   1.673   3.457 -2.0708  0.9923 -1.7203
  124EMI    H0D 2347   0.411   1.565   3.465  0.1364  1.2485 -0.0960
  124EMI    N00 2348   0.594   1.484   3.543 -0.0720  0.0173 -1.0759
  124EMI    C06 2349   0.670   1.162   3.684  0.3123 -0.3170 -0.4177
  124EMI    H0F 2350   0.761   1.107   3.664 -0.8560 -2.2372 -0.6663
  124EMI    C0N 2351   0.638   1.172   3.830 -0.0882  0.1259 -0.4324
  124EMI    H0O 2352   0.531   1.183   3.842 -0.0709  0.0475 -0.2143
  124EMI    H0P 2353   0.665   1.080   3.879 -4.5328 -1.3591 -0.3394
  124EMI    H0Q 2354   0.698   1.255   3.866  0.3565 -0.1796 -0.4607
  124EMI    N02 2355   0.668   1.298   3.616 -0.1976  0.2168  0.2684
  124EMI    H0E 2356   0.598   1.094   3.641 -0.3676 -0.4085  0.8168
  125EMI    C01 2357   0.628   3.833   0.709 -0.5935  0.5147  1.0536
  125EMI    C04 2358   0.840   3.829   0.739  0.3944 -0.8771 -1.0290
  125EMI    C03 2359   0.779   3.859   0.856  0.2054  0.2428 -0.2725
  125EMI    H07 2360   0.535   3.822   0.658  1.0485 -3.3410 -1.5931
  125EMI    H09 2361   0.944   3.832   0.715  1.3842  0.7244  2.7808
  125EMI    H08 2362   0.820   3.876   0.953 -2.2090  2.4113  0.4580
  125EMI    C05 2363   0.535   3.878   0.940  0.3545  0.4246 -0.8133
  125EMI    H0B 2364   0.547   3.975   0.987  0.4407 -0.0283  0.0939
  125EMI    H0C 2365   0.435   3.882   0.899  0.5240 -0.7333 -1.3614
  125EMI    H0D 2366   0.548   3.795   1.007 -1.1125 -0.0078 -1.0395
  125EMI    N00 2367   0.643   3.859   0.835 -0.1608 -0.1713 -0.0381
  125EMI    C06 2368   0.777   3.770   0.509 -0.6564 -0.5616  0.1385
  125EMI    H0F 2369   0.824   3.844   0.447 -0.7424 -0.5160  0.1272
  125EMI    C0N 2370   0.852   3.639   0.521  0.5559  0.1313 -0.0187
  125EMI    H0O 2371   0.793   3.562   0.570  0.1544  2.1779  2.9622
  125EMI    H0P 2372   0.881   3.601   0.423  0.0357 -0.1090 -0.0827
  125EMI    H0Q 2373   0.931   3.639   0.595 -0.2028 -1.9806  0.8682
  125EMI    N02 2374   0.743   3.821   0.649 -0.1260  0.1406 -0.2529
  125EMI    H0E 2375   0.688   3.729   0.463 -1.4998  1.9223 -0.6363
  126EMI    C01 2376   2.732   4.099   1.821 -0.5253 -0.1251  0.2014
  126EMI    C04 2377   2.559   4.191   1.902  0.2288  0.4395 -0.1510
  126EMI    C03 2378   2.622   4.128   2.002  0.5541  0.8005  1.3244
  126EMI    H07 2379   2.808   4.059   1.758 -0.9702 -1.9208  0.7559
  126EMI    H09 2380   2.466   4.243   1.903  1.1341  2.1520  0.3331
  126EMI    H08 2381   2.599   4.120   2.106 -0.8457 -1.7188  0.9219
  126EMI    C05 2382   2.842   4.008   2.030  1.3750 -0.0006  0.7785
  126EMI    H0B 2383   2.797   3.935   2.096  1.5209 -0.5043  0.3267
  126EMI    H0C 2384   2.919   3.962   1.971  0.9193 -1.8781  1.5644
  126EMI    H0D 2385   2.894   4.075   2.097  1.1526 -0.2233  1.1819
  126EMI    N00 2386   2.740   4.080   1.950 -0.4499 -0.1239 -0.3650
  126EMI    C06 2387   2.616   4.253   1.664  0.2482 -0.7048  0.0110
  126EMI    H0F 2388   2.554   4.335   1.696 -0.4216 -0.6341 -1.3755
  126EMI    C0N 2389   2.744   4.314   1.621  0.0575  0.1862 -1.4960
  126EMI    H0O 2390   2.782   4.259   1.536 -0.0800 -1.0605 -0.7757
  126EMI    H0P 2391   2.729   4.421   1.605  1.1763  0.6355  0.1570
  126EMI    H0Q 2392   2.824   4.307   1.694 -0.3386 -2.3650 -1.2466
  126EMI    N02 2393   2.631   4.180   1.789 -0.3352  0.4090 -0.2165
  126EMI    H0E 2394   2.560   4.188   1.599 -0.6420 -1.4246  1.4624
  127EMI    C01 2395   0.834   2.652   1.284  0.5602  0.1165 -0.1749
  127EMI    C04 2396   0.876   2.542   1.102  0.4185 -0.3183 -0.5718
  127EMI    C03 2397   0.813   2.656   1.069  0.0323 -0.0594 -0.0274
  127EMI    H07 2398   0.849   2.691   1.382  0.2273  0.1390 -0.1333
  127EMI    H09 2399   0.912   2.464   1.038 -0.3299 -0.3510 -0.9584
  127EMI    H08 2400   0.783   2.692   0.973  0.1277 -0.0366 -0.0484
  127EMI    C05 2401   0.685   2.829   1.192 -0.1646  0.0528  0.4325
  127EMI    H0B 2402   0.733   2.925   1.175 -0.7437  0.3576  0.5113
  127EMI    H0C 2403   0.601   2.816   1.125 -1.6389  0.4895  2.1252
  127EMI    H0D 2404   0.651   2.836   1.294  1.4144 -0.2518  1.0193
  127EMI    N00 2405   0.779   2.721   1.187  0.2138  0.1269 -0.1801
  127EMI    C06 2406   0.942   2.426   1.306  0.3036  0.2703  0.6852
  127EMI    H0F 2407   0.929   2.441   1.412 -2.9352 -1.0224  0.5822
  127EMI    C0N 2408   0.867   2.298   1.271  0.3567  0.3045  0.0296
  127EMI    H0O 2409   0.906   2.201   1.300  1.7028  0.8306  0.0356
  127EMI    H0P 2410   0.771   2.298   1.321 -0.9080 -1.4650 -2.2132
  127EMI    H0Q 2411   0.841   2.292   1.166  0.8743 -1.7571 -0.0086
  127EMI    N02 2412   0.880   2.538   1.241 -0.1626 -0.0849  0.0981
  127EMI    H0E 2413   1.045   2.419   1.277  0.4275 -1.4846  1.3892
  128EMI    C01 2414   3.210   0.888   2.418  0.4305  0.2096  0.9760
  128EMI    C04 2415   3.178   0.689   2.345 -0.0855  0.7879  0.1736
  128EMI    C03 2416   3.061   0.732   2.388 -0.0254 -0.6455  0.0882
  128EMI    H07 2417   3.254   0.982   2.445  1.5290 -0.5389  1.8674
  128EMI    H09 2418   3.201   0.594   2.300 -0.8785  0.6228  0.0967
  128EMI    H08 2419   2.962   0.692   2.387 -0.4247  0.3286 -0.1872
  128EMI    C05 2420   2.975   0.952   2.473 -0.5294  0.4149  0.8574
  128EMI    H0B 2421   3.023   1.024   2.537 -0.3565  0.3747  0.7726
  128EMI    H0C 2422   2.930   1.003   2.388  1.0885  0.1900 -0.1753
  128EMI    H0D 2423   2.895   0.893   2.515 -1.1336 -0.4694 -1.3862
  128EMI    N00 2424   3.080   0.859   2.432  0.0586 -0.5994 -0.2415
  128EMI    C06 2425   3.413   0.791   2.318  0.0992  0.7712 -0.3581
  128EMI    H0F 2426   3.428   0.706   2.253  2.1266  0.2578  0.7008
  128EMI    C0N 2427   3.452   0.910   2.224 -0.5254  0.1728 -0.8132
  128EMI    H0O 2428   3.533   0.881   2.158  0.4409  1.1839 -0.1111
  128EMI    H0P 2429   3.366   0.930   2.161 -0.5315 -0.0125 -0.8643
  128EMI    H0Q 2430   3.470   1.003   2.278 -1.0197 -0.8229  1.1408
  128EMI    N02 2431   3.269   0.786   2.364 -0.8911 -0.4224  0.3644
  128EMI    H0E 2432   3.478   0.779   2.403  0.2110 -0.6440 -0.6136
  129EMI    C01 2433   2.295   3.286   2.842 -0.3429 -0.5930  0.3599
  129EMI    C04 2434   2.430   3.448   2.775  0.0979  0.2788  0.5635
  129EMI    C03 2435   2.435   3.352   2.683  0.1114 -0.4875 -0.3614
  129EMI    H07 2436   2.230   3.223   2.898  0.1835 -0.7067  0.8384
  129EMI    H09 2437   2.478   3.543   2.783 -0.3606  0.6539 -0.9067
  129EMI    H08 2438   2.485   3.344   2.589  3.1438 -0.9184  1.1886
  129EMI    C05 2439   2.324   3.122   2.653 -0.5506  0.0186  0.8657
  129EMI    H0B 2440   2.301   3.038   2.716  0.6546 -1.1857 -0.2450
  129EMI    H0C 2441   2.240   3.143   2.589  0.1534 -2.2414 -0.9072
  129EMI    H0D 2442   2.407   3.100   2.588  0.2128 -1.6621  2.3310
  129EMI    N00 2443   2.347   3.249   2.724  0.9200 -0.0694  0.9930
  129EMI    C06 2444   2.301   3.488   2.985  0.2716  0.1554  0.1127
  129EMI    H0F 2445   2.207   3.447   3.020  0.5133 -0.1404  0.4309
  129EMI    C0N 2446   2.389   3.491   3.109 -0.3329 -0.3038 -0.0162
  129EMI    H0O 2447   2.347   3.569   3.171  1.7896  0.7339  0.1993
  129EMI    H0P 2448   2.390   3.399   3.165 -0.2151 -0.4445 -0.2471
  129EMI    H0Q 2449   2.486   3.520   3.070 -1.4030 -0.8752 -3.5385
  129EMI    N02 2450   2.342   3.407   2.870  0.0196 -0.2557 -0.4700
  129EMI    H0E 2451   2.286   3.584   2.939 -0.4809  0.3339  0.7124
  130EMI    C01 2452   0.577   2.840   1.891 -0.5788  0.9990  0.1857
  130EMI    C04 2453   0.583   2.625   1.922  0.1796 -0.3987 -0.8355
  130EMI    C03 2454   0.623   2.651   1.797  1.2753 -0.1315  0.0998
  130EMI    H07 2455   0.594   2.943   1.913  0.9243  1.1374 -1.4564
  130EMI    H09 2456   0.562   2.535   1.976 -3.1308 -0.2787 -1.6879
  130EMI    H08 2457   0.649   2.581   1.720  0.6966  1.3120 -1.4877
  130EMI    C05 2458   0.688   2.865   1.672  0.1052  0.7470 -0.3262
  130EMI    H0B 2459   0.719   2.965   1.697 -0.5296  1.3292 -1.7486
  130EMI    H0C 2460   0.774   2.815   1.630 -1.4212 -2.5099  0.0959
  130EMI    H0D 2461   0.618   2.870   1.590 -0.0952 -1.9109 -0.4194
  130EMI    N00 2462   0.637   2.786   1.786  1.3513  0.1496  0.2598
  130EMI    C06 2463   0.495   2.770   2.116  0.6317  0.4617  0.1219
  130EMI    H0F 2464   0.403   2.716   2.131  0.7487  0.5035  1.1080
  130EMI    C0N 2465   0.599   2.731   2.219 -0.3373  0.0192 -0.4799
  130EMI    H0O 2466   0.638   2.631   2.205 -0.6234 -0.3279  1.0297
  130EMI    H0P 2467   0.686   2.795   2.217 -0.1404 -0.0498  2.0617
  130EMI    H0Q 2468   0.552   2.743   2.317 -3.1630 -0.4607 -1.6707
  130EMI    N02 2469   0.541   2.748   1.978  0.0284 -0.0235 -0.0404
  130EMI    H0E 2470   0.471   2.873   2.137  0.6693  0.6161 -0.5716
  131EMI    C01 2471   2.112   1.097   1.954 -0.2494 -0.4964  0.2785
  131EMI    C04 2472   2.051   1.035   1.750  0.0433  0.5867 -0.1527
  131EMI    C03 2473   2.164   0.969   1.783 -0.2914  0.0232 -0.5895
  131EMI    H07 2474   2.122   1.159   2.041  1.7038 -0.8573  0.3420
  131EMI    H09 2475   1.986   1.043   1.666  0.9283  0.6238 -0.8509
  131EMI    H08 2476   2.222   0.902   1.723  1.8585  1.9674 -0.8209
  131EMI    C05 2477   2.341   0.990   1.969 -0.4593 -1.1516  0.0649
  131EMI    H0B 2478   2.423   1.009   1.902 -0.4568  0.6796  0.5281
  131EMI    H0C 2479   2.359   1.046   2.060  3.3329  0.6454 -1.5517
  131EMI    H0D 2480   2.355   0.891   2.009  1.9102 -0.3056  1.4884
  131EMI    N00 2481   2.209   1.019   1.906 -0.1981 -0.5150 -0.0667
  131EMI    C06 2482   1.893   1.185   1.877 -0.2539 -0.2702 -0.2854
  131EMI    H0F 2483   1.809   1.130   1.918 -0.7556  0.4844 -0.2685
  131EMI    C0N 2484   1.911   1.321   1.948  0.1197 -0.1782 -0.2371
  131EMI    H0O 2485   1.887   1.316   2.053  1.8113  1.4250  0.2613
  131EMI    H0P 2486   2.017   1.343   1.945  0.0641  0.4104  1.3318
  131EMI    H0Q 2487   1.858   1.395   1.889 -0.0565  0.4653  0.7055
  131EMI    N02 2488   2.016   1.110   1.861 -0.4204  0.2557  0.0049
  131EMI    H0E 2489   1.867   1.204   1.774 -0.5752 -1.2075 -0.3833
  132EMI    C01 2490   3.430   3.244   1.723  0.2187  0.8549 -0.3384
  132EMI    C04 2491   3.556   3.063   1.727 -0.3419  0.2108 -0.2558
  132EMI    C03 2492   3.589   3.131   1.616 -0.6411 -0.1354 -0.5199
  132EMI    H07 2493   3.352   3.314   1.748 -1.5081 -1.2290  0.4277
  132EMI    H09 2494   3.600   2.974   1.766  0.6866  1.0610  0.5964
  132EMI    H08 2495   3.659   3.127   1.536 -0.4212 -1.3847 -0.2902
  132EMI    C05 2496   3.527   3.357   1.526 -0.1078  0.3452 -0.1562
  132EMI    H0B 2497   3.492   3.449   1.570  1.4517  0.7403  0.3015
  132EMI    H0C 2498   3.629   3.376   1.496 -0.5264  0.7786 -1.3724
  132EMI    H0D 2499   3.481   3.312   1.439 -2.2409  1.1185  0.5052
  132EMI    N00 2500   3.512   3.247   1.624 -0.2634 -0.5428  0.4523
  132EMI    C06 2501   3.381   3.092   1.904 -0.0582  0.9710 -0.4672
  132EMI    H0F 2502   3.327   3.001   1.884 -1.0273  1.6400 -1.0014
  132EMI    C0N 2503   3.488   3.075   2.013 -0.5154  0.0424  0.1838
  132EMI    H0O 2504   3.561   3.155   2.005  0.2884 -0.6666  0.2504
  132EMI    H0P 2505   3.443   3.055   2.109  1.3747  3.0597  1.8537
  132EMI    H0Q 2506   3.540   2.984   1.985 -1.8208 -1.2472  1.7879
  132EMI    N02 2507   3.450   3.131   1.784 -0.0997 -0.2070 -0.4737
  132EMI    H0E 2508   3.311   3.167   1.938  0.3536  1.2640 -0.2624
  133EMI    C01 2509   2.246   0.539   1.705 -1.4329  0.8696  0.5263
  133EMI    C04 2510   2.432   0.597   1.803 -0.5451  0.2876 -0.6888
  133EMI    C03 2511   2.349   0.537   1.890 -0.0114  0.3655  0.0641
  133EMI    H07 2512   2.170   0.534   1.630 -0.8920 -0.2314  0.0270
  133EMI    H09 2513   2.524   0.650   1.814  0.5386 -1.3272 -1.4959
  133EMI    H08 2514   2.369   0.517   1.993  0.5790 -0.7203 -0.2426
  133EMI    C05 2515   2.122   0.427   1.888  0.8038  0.0523 -1.0001
  133EMI    H0B 2516   2.032   0.445   1.831 -0.3178  2.2904  1.2985
  133EMI    H0C 2517   2.130   0.319   1.897  1.7222  0.0183 -2.0920
  133EMI    H0D 2518   2.092   0.466   1.984  0.0622 -0.6420 -0.9273
  133EMI    N00 2519   2.230   0.504   1.831 -0.0744 -0.1441  0.6167
  133EMI    C06 2520   2.420   0.622   1.546  0.5166  0.2745  0.3431
  133EMI    H0F 2521   2.385   0.554   1.470 -0.5360  0.8166  0.3150
  133EMI    C0N 2522   2.388   0.763   1.504  0.2834 -0.3172 -0.1304
  133EMI    H0O 2523   2.379   0.769   1.397 -1.8161  0.3220  0.0357
  133EMI    H0P 2524   2.287   0.789   1.535 -0.2775 -2.0720 -0.3777
  133EMI    H0Q 2525   2.461   0.832   1.545  0.5618 -0.5877 -0.1733
  133EMI    N02 2526   2.371   0.581   1.680  0.0764 -0.1651 -0.4102
  133EMI    H0E 2527   2.524   0.594   1.553 -0.4455 -3.9994  0.2586
  134EMI    C01 2528   0.772   4.622   1.077  0.1349  0.5019 -0.3760
  134EMI    C04 2529   0.943   4.578   1.198 -0.5312 -0.1175  0.1310
  134EMI    C03 2530   0.889   4.461   1.174  0.6546 -0.2085  0.7560
  134EMI    H07 2531   0.694   4.671   1.022 -1.0108 -0.2304  0.5447
  134EMI    H09 2532   1.030   4.600   1.255 -1.9201  0.5923  2.1091
  134EMI    H08 2533   0.924   4.365   1.202  1.2383  0.4505  2.4133
  134EMI    C05 2534   0.667   4.392   1.044  0.0360 -0.7909  0.5773
  134EMI    H0B 2535   0.656   4.304   1.106 -0.1707 -0.4565  1.0222
  134EMI    H0C 2536   0.574   4.446   1.049  1.2337  1.5380 -0.7170
  134EMI    H0D 2537   0.690   4.354   0.946  1.9182 -0.4220  0.8450
  134EMI    N00 2538   0.773   4.489   1.088  0.6221  0.7663 -0.5986
  134EMI    C06 2539   0.906   4.825   1.138 -0.6503 -1.1149  0.6272
  134EMI    H0F 2540   0.878   4.875   1.229 -0.9771 -1.9961  1.0173
  134EMI    C0N 2541   1.060   4.847   1.120 -0.3758  0.5747  0.5812
  134EMI    H0O 2542   1.090   4.810   1.023 -0.1834 -0.2927  0.9546
  134EMI    H0P 2543   1.086   4.951   1.134  0.8770  0.1976  1.2242
  134EMI    H0Q 2544   1.122   4.777   1.176 -0.8773 -2.4915 -2.3500
  134EMI    N02 2545   0.869   4.682   1.138 -0.0762 -0.2135 -0.0522
  134EMI    H0E 2546   0.862   4.888   1.062 -0.8091 -0.9260  0.8793
  135EMI    C01 2547   0.475   1.365   4.378  0.6119 -0.2118  0.1345
  135EMI    C04 2548   0.347   1.540   4.396  0.3114  0.1394 -0.1738
  135EMI    C03 2549   0.457   1.578   4.332 -0.0088 -0.7185 -0.4597
  135EMI    H07 2550   0.508   1.266   4.399 -2.3960 -1.3127  0.1377
  135EMI    H09 2551   0.257   1.595   4.412 -0.0578 -0.8836  1.4822
  135EMI    H08 2552   0.486   1.675   4.300 -0.5837 -1.0576 -2.0919
  135EMI    C05 2553   0.656   1.467   4.241  0.6962 -0.6232  0.5405
  135EMI    H0B 2554   0.672   1.376   4.185  1.9452 -0.1145  0.0355
  135EMI    H0C 2555   0.661   1.550   4.173  2.3918 -1.5219 -0.4927
  135EMI    H0D 2556   0.742   1.463   4.307  0.4723  0.4121  0.9226
  135EMI    N00 2557   0.536   1.472   4.322 -0.0749 -0.1366  0.1022
  135EMI    C06 2558   0.265   1.317   4.510 -0.0857 -0.1735  0.1652
  135EMI    H0F 2559   0.286   1.332   4.614  0.1683 -1.5954  0.3417
  135EMI    C0N 2560   0.126   1.338   4.471  0.9812 -0.2928  0.2332
  135EMI    H0O 2561   0.102   1.442   4.489  2.9862  0.9550 -3.1979
  135EMI    H0P 2562   0.120   1.307   4.367 -1.6283 -1.3183  0.6132
  135EMI    H0Q 2563   0.076   1.266   4.535  0.4844 -0.1308  0.0325
  135EMI    N02 2564   0.358   1.406   4.424  0.1828 -0.0871 -0.7327
  135EMI    H0E 2565   0.279   1.214   4.481  0.1940 -0.2026  0.4070
  136EMI    C01 2566   0.955   0.217   3.907  0.4698 -0.0195 -0.4851
  136EMI    C04 2567   1.164   0.273   3.934 -0.2922 -0.0900  0.0055
  136EMI    C03 2568   1.096   0.377   3.881 -0.4924 -0.1479  0.2936
  136EMI    H07 2569   0.866   0.158   3.916  2.0952 -2.9378 -1.8220
  136EMI    H09 2570   1.268   0.256   3.950 -0.9959 -3.2591  2.0217
  136EMI    H08 2571   1.136   0.471   3.850  2.6751 -1.1801  0.9149
  136EMI    C05 2572   0.862   0.427   3.814  0.1123 -0.7369 -0.2528
  136EMI    H0B 2573   0.917   0.477   3.736  1.4585  0.4567  1.3921
  136EMI    H0C 2574   0.779   0.365   3.784 -1.4981  1.2422 -0.1214
  136EMI    H0D 2575   0.820   0.493   3.889  0.0892 -0.0695 -0.8400
  136EMI    N00 2576   0.964   0.343   3.872 -0.0782 -0.5434  0.0292
  136EMI    C06 2577   1.093   0.060   4.044 -0.3124  0.0181  0.2243
  136EMI    H0F 2578   1.187   0.013   4.020 -1.4180 -2.1546 -0.0644
  136EMI    C0N 2579   1.088   0.083   4.189 -0.1072  0.1172 -0.1577
  136EMI    H0O 2580   1.011   0.153   4.217  0.3759  0.5017  0.2198
  136EMI    H0P 2581   1.075  -0.011   4.242  1.1158 -0.4143 -0.7679
  136EMI    H0Q 2582   1.178   0.117   4.239 -0.4063 -1.5265  1.6290
  136EMI    N02 2583   1.071   0.180   3.961  0.7076  0.3926  0.4135
  136EMI    H0E 2584   1.022  -0.010   4.003  0.6067  0.3149 -2.0435
  137EMI    C01 2585   3.930   1.774   0.000 -0.1140  0.1367  0.0919
  137EMI    C04 2586   3.820   1.715   0.169  0.4284 -0.2028 -0.8036
  137EMI    C03 2587   3.944   1.676   0.191 -0.1147 -0.5282 -0.5902
  137EMI    H07 2588   3.951   1.831  -0.087  0.0999  0.7128  0.5109
  137EMI    H09 2589   3.732   1.712   0.229  0.5807 -0.3644 -0.5853
  137EMI    H08 2590   3.984   1.640   0.283 -1.4969 -0.1127  0.1889
  137EMI    C05 2591   4.156   1.698   0.063  0.2762  0.0177  0.0920
  137EMI    H0B 2592   4.206   1.605   0.086  1.4698  0.5820 -0.1429
  137EMI    H0C 2593   4.191   1.730  -0.034 -0.9119  0.0148 -0.3529
  137EMI    H0D 2594   4.186   1.775   0.133 -0.8163 -0.4164  1.0923
  137EMI    N00 2595   4.012   1.706   0.075  0.2398 -0.0897 -0.0019
  137EMI    C06 2596   3.692   1.846  -0.014  0.6648 -0.8024 -0.4427
  137EMI    H0F 2597   3.634   1.765  -0.058 -1.3123  0.8628 -1.0618
  137EMI    C0N 2598   3.610   1.915   0.087 -0.1505 -0.0933  0.0816
  137EMI    H0O 2599   3.656   1.968   0.170 -1.4322 -0.0901  0.8172
  137EMI    H0P 2600   3.542   1.971   0.025  0.6708  0.9829  0.1092
  137EMI    H0Q 2601   3.557   1.837   0.142  0.9842 -0.9775 -0.0418
  137EMI    N02 2602   3.812   1.764   0.043  0.0144 -0.6855 -0.4326
  137EMI    H0E 2603   3.734   1.919  -0.081  1.4229 -0.9158 -0.1024
  138EMI    C01 2604   4.264   3.213   2.239 -0.4566  0.5373  0.5591
  138EMI    C04 2605   4.132   3.073   2.326  0.2396 -0.3269 -0.7421
  138EMI    C03 2606   4.251   3.011   2.323  0.0269 -1.0144  0.2365
  138EMI    H07 2607   4.303   3.311   2.221 -0.5654  1.0378  2.7774
  138EMI    H09 2608   4.040   3.041   2.369  0.5903 -0.7029 -0.2553
  138EMI    H08 2609   4.282   2.916   2.362  3.1412 -0.0128  0.4164
  138EMI    C05 2610   4.482   3.105   2.274  0.1975 -0.6724 -0.2177
  138EMI    H0B 2611   4.528   3.131   2.180  1.9680 -1.3575  0.4221
  138EMI    H0C 2612   4.501   3.183   2.347 -2.1308  1.6263 -1.8931
  138EMI    H0D 2613   4.521   3.006   2.291  1.1690 -0.0394  1.6246
  138EMI    N00 2614   4.335   3.104   2.268 -0.3654 -1.1030 -0.4501
  138EMI    C06 2615   4.031   3.298   2.250 -0.0768  0.2765  0.2202
  138EMI    H0F 2616   3.956   3.255   2.186 -0.5446  0.9277  0.3235
  138EMI    C0N 2617   3.968   3.327   2.389  0.0029  0.1748  0.0439
  138EMI    H0O 2618   4.031   3.400   2.439  0.7509  0.2520 -0.9784
  138EMI    H0P 2619   3.872   3.375   2.373  0.7017  1.1422 -1.3851
  138EMI    H0Q 2620   3.948   3.236   2.445  0.8740  0.2272  0.4522
  138EMI    N02 2621   4.135   3.192   2.261  0.4158  0.2229  0.3305
  138EMI    H0E 2622   4.062   3.387   2.196 -0.9907 -0.4678 -1.6358
  139EMI    C01 2623   1.602   0.718   1.328 -0.3940 -0.0462  0.0143
  139EMI    C04 2624   1.556   0.819   1.141  0.7566  0.2968  0.6120
  139EMI    C03 2625   1.614   0.702   1.112 -0.1861  0.5030  0.2772
  139EMI    H07 2626   1.607   0.689   1.431  0.4743 -1.5518 -0.4166
  139EMI    H09 2627   1.513   0.885   1.069  0.3863 -1.1693 -0.5656
  139EMI    H08 2628   1.644   0.659   1.019  1.1082 -1.2829  1.4763
  139EMI    C05 2629   1.677   0.500   1.258  0.2356  0.2731 -0.4266
  139EMI    H0B 2630   1.648   0.441   1.171  2.3859 -0.2437 -0.8529
  139EMI    H0C 2631   1.783   0.510   1.239  0.2070 -1.6200 -1.9527
  139EMI    H0D 2632   1.659   0.458   1.356  2.8318 -2.4957 -0.9773
  139EMI    N00 2633   1.629   0.635   1.235  0.0509  0.3877  0.1019
  139EMI    C06 2634   1.519   0.957   1.357 -0.3690  0.2320  0.3844
  139EMI    H0F 2635   1.540   0.935   1.461 -1.1232 -1.5267  0.1961
  139EMI    C0N 2636   1.599   1.069   1.292  0.0970  0.0478 -0.7316
  139EMI    H0O 2637   1.624   1.132   1.376 -1.2222  0.8942 -0.9354
  139EMI    H0P 2638   1.687   1.030   1.242  0.8419  3.5729 -2.4556
  139EMI    H0Q 2639   1.545   1.126   1.217 -1.0389  0.0021  0.0220
  139EMI    N02 2640   1.547   0.828   1.282 -0.4282  0.0989  0.2747
  139EMI    H0E 2641   1.414   0.981   1.344 -0.2320  0.7161  0.1537
  140EMI    C01 2642   2.260   3.934   1.961  0.1530 -0.2255 -0.3697
  140EMI    C04 2643   2.136   3.776   2.038  0.9564 -0.1587 -0.2507
  140EMI    C03 2644   2.058   3.853   1.965  0.0141 -0.0339 -0.4455
  140EMI    H07 2645   2.346   3.997   1.959  0.0945 -0.0563  1.0665
  140EMI    H09 2646   2.110   3.682   2.083 -1.2419 -0.3884 -1.8597
  140EMI    H08 2647   1.952   3.854   1.952 -0.2340  2.0572  1.0885
  140EMI    C05 2648   2.097   4.055   1.819  0.7020  0.6818  0.6794
  140EMI    H0B 2649   2.173   4.129   1.798 -1.2802  1.9194 -2.9797
  140EMI    H0C 2650   2.083   4.003   1.726 -0.2599 -1.8414  2.1467
  140EMI    H0D 2651   2.014   4.103   1.869  1.0903  1.5598  0.5071
  140EMI    N00 2652   2.139   3.952   1.912  0.0030  0.3267  0.1417
  140EMI    C06 2653   2.379   3.751   2.090 -0.3309 -0.5600 -0.1650
  140EMI    H0F 2654   2.365   3.727   2.195  0.5869  0.4419  0.2049
  140EMI    C0N 2655   2.412   3.621   2.006  0.7298 -0.5096  0.0402
  140EMI    H0O 2656   2.503   3.585   2.052  0.5113  1.0061  1.7628
  140EMI    H0P 2657   2.341   3.540   2.018 -2.7937  2.6684  3.2636
  140EMI    H0Q 2658   2.413   3.649   1.902 -2.6931  3.3449  0.7765
  140EMI    N02 2659   2.260   3.823   2.035 -0.2461  0.2105  0.5179
  140EMI    H0E 2660   2.471   3.808   2.095 -1.0696  0.5820  1.3570
  141EMI    C01 2661   2.123   4.560   4.223 -0.0170 -0.1653 -0.1173
  141EMI    C04 2662   2.138   4.504   4.015 -0.4914  0.4802 -0.3158
  141EMI    C03 2663   2.192   4.623   4.034 -0.1143 -0.1248 -0.1531
  141EMI    H07 2664   2.104   4.564   4.328  0.1628  1.2869 -0.1209
  141EMI    H09 2665   2.127   4.442   3.929 -0.3741 -1.5584  1.0588
  141EMI    H08 2666   2.247   4.681   3.963  0.4721 -0.9154 -0.3630
  141EMI    C05 2667   2.248   4.772   4.225  1.0935  0.2437  0.4465
  141EMI    H0B 2668   2.186   4.859   4.207 -0.4307 -0.6839  1.0769
  141EMI    H0C 2669   2.240   4.782   4.332 -3.9213  2.3527  0.1306
  141EMI    H0D 2670   2.354   4.781   4.203  1.3296 -2.9771 -0.1515
  141EMI    N00 2671   2.191   4.657   4.164  0.1203  0.0786 -0.4346
  141EMI    C06 2672   2.011   4.342   4.160  0.2429 -0.0721  0.2209
  141EMI    H0F 2673   2.075   4.263   4.125  0.8568  1.2995 -1.9934
  141EMI    C0N 2674   1.976   4.322   4.301 -0.3284  0.5298 -1.0262
  141EMI    H0O 2675   2.067   4.344   4.356  0.0036 -2.4618 -0.2170
  141EMI    H0P 2676   1.886   4.379   4.322  0.9980  2.5414 -0.4427
  141EMI    H0Q 2677   1.957   4.218   4.325  0.9599  1.0777  3.2701
  141EMI    N02 2678   2.086   4.466   4.132  0.1005 -0.0436 -0.8575
  141EMI    H0E 2679   1.924   4.345   4.095  0.1892  0.3357  0.3036
  142EMI    C01 2680   0.675   4.423   0.408  0.4149  0.1939  0.6969
  142EMI    C04 2681   0.465   4.492   0.382  0.0654  0.3767 -1.0898
  142EMI    C03 2682   0.467   4.403   0.483  0.2738  0.2827  0.7828
  142EMI    H07 2683   0.781   4.409   0.401  0.0842 -1.8646 -1.0997
  142EMI    H09 2684   0.384   4.548   0.340 -1.6674 -0.2926  1.1480
  142EMI    H08 2685   0.385   4.374   0.546  0.0964 -0.5884  0.1697
  142EMI    C05 2686   0.639   4.246   0.572 -0.1991 -0.1682  0.0843
  142EMI    H0B 2687   0.627   4.285   0.672 -2.3880 -1.1780  0.2813
  142EMI    H0C 2688   0.574   4.160   0.559  2.3414 -2.9177  3.6526
  142EMI    H0D 2689   0.729   4.209   0.526 -0.2618  0.9622 -1.0067
  142EMI    N00 2690   0.598   4.352   0.487  0.5554  0.2166 -0.5488
  142EMI    C06 2691   0.625   4.610   0.242 -0.1154 -0.7112  0.6195
  142EMI    H0F 2692   0.541   4.677   0.249  0.9707  1.2778 -3.0894
  142EMI    C0N 2693   0.759   4.679   0.275  0.6941  0.0077 -0.0428
  142EMI    H0O 2694   0.840   4.611   0.252  0.1671 -0.6104 -0.0839
  142EMI    H0P 2695   0.765   4.765   0.208 -0.7229 -1.3403 -2.0253
  142EMI    H0Q 2696   0.774   4.706   0.379 -0.5612  0.7375 -0.0373
  142EMI    N02 2697   0.595   4.510   0.344  0.0891  0.9689 -0.7801
  142EMI    H0E 2698   0.625   4.565   0.144 -0.4227 -0.7381  0.6317
  143EMI    C01 2699   0.445   4.906   3.969  0.0383 -0.5046  0.3120
  143EMI    C04 2700   0.629   5.015   4.009  0.0911  0.0233 -0.0266
  143EMI    C03 2701   0.534   5.078   4.067 -0.0935  0.2103  0.0615
  143EMI    H07 2702   0.389   4.828   3.924  0.7541 -0.2882 -1.0195
  143EMI    H09 2703   0.730   5.048   3.998  0.1203  0.2376  0.8231
  143EMI    H08 2704   0.538   5.169   4.123 -0.9377 -0.2257  0.8591
  143EMI    C05 2705   0.289   5.047   4.097 -0.6733  0.3529  0.3535
  143EMI    H0B 2706   0.291   5.049   4.205 -0.4303 -1.6294  0.4349
  143EMI    H0C 2707   0.254   5.143   4.064  1.5783  0.9202 -0.5925
  143EMI    H0D 2708   0.227   4.962   4.070 -0.8135  1.2112 -2.3012
  143EMI    N00 2709   0.418   5.016   4.039 -0.3851  0.5594 -0.2213
  143EMI    C06 2710   0.656   4.792   3.888 -0.5104  0.1647  0.6501
  143EMI    H0F 2711   0.583   4.712   3.893  1.1966 -1.7479 -2.2270
  143EMI    C0N 2712   0.679   4.815   3.737 -0.0094 -0.1234  0.4545
  143EMI    H0O 2713   0.586   4.799   3.683 -0.1037  1.9483 -0.0836
  143EMI    H0P 2714   0.708   4.917   3.714  0.4479  0.2295  2.3774
  143EMI    H0Q 2715   0.751   4.749   3.690 -2.5869 -1.9403 -1.1969
  143EMI    N02 2716   0.578   4.899   3.951  0.2584  0.2329  0.2241
  143EMI    H0E 2717   0.741   4.774   3.953 -0.5449 -0.5434  0.5062
  144EMI    C01 2718   2.555   1.885   4.101 -0.7384 -0.2419  0.0072
  144EMI    C04 2719   2.595   1.799   4.291  0.1913 -0.4181 -0.0899
  144EMI    C03 2720   2.523   1.908   4.310 -0.3352  0.3979 -0.3325
  144EMI    H07 2721   2.557   1.909   3.996 -0.0659 -1.0697 -0.1839
  144EMI    H09 2722   2.633   1.737   4.369  0.2285 -1.4995 -0.9514
  144EMI    H08 2723   2.491   1.953   4.401  4.6050 -0.1389  2.0292
  144EMI    C05 2724   2.446   2.094   4.162  0.3329  0.2631  0.4081
  144EMI    H0B 2725   2.454   2.161   4.246 -0.2655  0.2360  0.4974
  144EMI    H0C 2726   2.486   2.126   4.067  1.2560 -1.1004  0.3169
  144EMI    H0D 2727   2.338   2.090   4.149  0.4043 -2.6517 -0.0261
  144EMI    N00 2728   2.499   1.964   4.191 -0.6209  0.4065 -0.0915
  144EMI    C06 2729   2.691   1.679   4.086  0.1283  0.1129  0.1827
  144EMI    H0F 2730   2.647   1.654   3.991  0.6458  0.6555 -0.2133
  144EMI    C0N 2731   2.835   1.716   4.080 -0.3182 -0.0413  0.0935
  144EMI    H0O 2732   2.880   1.711   4.179  0.0912 -2.2245 -0.1510
  144EMI    H0P 2733   2.894   1.638   4.034 -0.7606  0.5801 -1.5932
  144EMI    H0Q 2734   2.862   1.808   4.029  0.7162 -0.7809 -0.7337
  144EMI    N02 2735   2.614   1.790   4.161  0.0417  0.4982 -0.2597
  144EMI    H0E 2736   2.693   1.594   4.152  3.0217 -0.9171 -1.0492
  145EMI    C01 2737   3.165   4.674   1.470 -0.3034  0.1200 -0.6112
  145EMI    C04 2738   3.039   4.507   1.520 -0.1255 -0.2614 -0.1033
  145EMI    C03 2739   2.970   4.618   1.531 -0.0925  0.3771  0.3068
  145EMI    H07 2740   3.254   4.728   1.446  1.2975 -2.1995 -0.2649
  145EMI    H09 2741   3.002   4.410   1.546 -1.5711  0.5617  1.0964
  145EMI    H08 2742   2.870   4.632   1.565 -0.3102 -2.4352  1.0900
  145EMI    C05 2743   3.009   4.869   1.512  0.8142  0.8770  0.8421
  145EMI    H0B 2744   3.060   4.922   1.433  0.6316  1.0760  0.8585
  145EMI    H0C 2745   2.904   4.878   1.490  0.3190 -1.4909  1.9325
  145EMI    H0D 2746   3.027   4.919   1.605  1.1755 -0.1463  1.3411
  145EMI    N00 2747   3.051   4.724   1.514  0.5217 -0.7099  0.4068
  145EMI    C06 2748   3.275   4.451   1.452 -0.0155 -0.1630 -0.0101
  145EMI    H0F 2749   3.292   4.386   1.537 -1.2566 -1.2110 -0.5392
  145EMI    C0N 2750   3.250   4.368   1.329 -0.2172  0.2536  0.3177
  145EMI    H0O 2751   3.221   4.420   1.238  0.8920  1.4454  0.6294
  145EMI    H0P 2752   3.330   4.299   1.305 -1.4943 -0.4890 -2.1239
  145EMI    H0Q 2753   3.171   4.301   1.362 -0.7917  1.2962  1.1108
  145EMI    N02 2754   3.161   4.540   1.475  0.4170 -0.0078 -0.7343
  145EMI    H0E 2755   3.358   4.521   1.457 -0.5585  0.4515  0.7151
  146EMI    C01 2756   1.905   2.126   2.234  0.1433  0.4208  0.1315
  146EMI    C04 2757   1.699   2.080   2.179  0.8154 -0.0461 -0.5389
  146EMI    C03 2758   1.715   2.046   2.308 -0.1266  0.0429  0.2102
  146EMI    H07 2759   2.008   2.156   2.234  0.4071 -0.4010 -0.7534
  146EMI    H09 2760   1.612   2.076   2.117  1.5462 -2.5120 -1.5550
  146EMI    H08 2761   1.647   2.014   2.384 -1.1861  1.7701  0.0606
  146EMI    C05 2762   1.914   2.048   2.465  0.2143  0.2990 -0.1336
  146EMI    H0B 2763   1.896   1.951   2.510 -2.5344  1.6158  1.9659
  146EMI    H0C 2764   2.021   2.049   2.454  0.1714 -0.6717 -0.7982
  146EMI    H0D 2765   1.880   2.122   2.536 -0.4824 -0.0452 -0.0917
  146EMI    N00 2766   1.849   2.070   2.334  0.3079 -0.3206 -0.8891
  146EMI    C06 2767   1.857   2.189   2.001  0.4993 -0.1737 -0.1280
  146EMI    H0F 2768   1.835   2.114   1.926 -0.8058  1.5981 -1.6278
  146EMI    C0N 2769   1.788   2.324   1.973 -0.6627  0.3140 -0.2187
  146EMI    H0O 2770   1.680   2.316   1.966 -0.6545  0.9344 -1.4326
  146EMI    H0P 2771   1.833   2.389   2.047  0.1796 -2.8417  2.2173
  146EMI    H0Q 2772   1.818   2.364   1.876  1.6193  0.3792  0.4634
  146EMI    N02 2773   1.820   2.127   2.135  0.0481  0.2728  0.2324
  146EMI    H0E 2774   1.964   2.199   1.994  0.4875  0.1528  0.1435
  147EMI    C01 2775   3.758   3.771   2.845  0.3604  0.3015  0.4025
  147EMI    C04 2776   3.630   3.919   2.751  0.4616 -0.1014 -0.5095
  147EMI    C03 2777   3.630   3.944   2.880 -0.1646  0.0792  0.5232
  147EMI    H07 2778   3.817   3.682   2.856 -0.1179  0.1036  1.5718
  147EMI    H09 2779   3.580   3.968   2.670  1.5428  0.9977 -0.5473
  147EMI    H08 2780   3.588   4.024   2.937  1.1281  0.3848  1.0806
  147EMI    C05 2781   3.725   3.830   3.089  1.0043 -0.3655 -0.1596
  147EMI    H0B 2782   3.625   3.816   3.128  1.5453 -0.5623  1.2340
  147EMI    H0C 2783   3.787   3.745   3.116 -0.5960 -1.7802 -0.7341
  147EMI    H0D 2784   3.755   3.923   3.135  0.7970  0.6098 -1.9102
  147EMI    N00 2785   3.711   3.850   2.942  0.6798  0.1302  0.0131
  147EMI    C06 2786   3.711   3.724   2.603 -0.0630  0.3752 -0.7777
  147EMI    H0F 2787   3.768   3.783   2.533 -0.6573  1.1004 -0.6689
  147EMI    C0N 2788   3.784   3.590   2.608 -0.3053  0.4943  0.2886
  147EMI    H0O 2789   3.887   3.601   2.640  0.2730  0.8929 -1.5950
  147EMI    H0P 2790   3.732   3.525   2.678 -0.0211 -0.2593 -0.1920
  147EMI    H0Q 2791   3.800   3.540   2.514  1.1903  0.6641  0.4203
  147EMI    N02 2792   3.700   3.798   2.732 -0.7528 -0.4899 -0.1162
  147EMI    H0E 2793   3.612   3.707   2.564  0.0574 -1.7171 -0.2982
  148EMI    C01 2794   0.385   4.453   4.834  0.7853 -0.7922  0.1305
  148EMI    C04 2795   0.228   4.555   4.729  1.0250  0.0252  0.1969
  148EMI    C03 2796   0.343   4.584   4.665 -0.2439  0.7093 -0.0097
  148EMI    H07 2797   0.438   4.394   4.905  0.3447 -3.5494 -1.6980
  148EMI    H09 2798   0.129   4.592   4.712  1.0414  0.5574  1.2046
  148EMI    H08 2799   0.351   4.653   4.584 -0.9071 -0.5640 -1.1951
  148EMI    C05 2800   0.565   4.481   4.657 -0.0167  1.0377 -0.5327
  148EMI    H0B 2801   0.596   4.561   4.591  4.8788 -0.2826 -0.2598
  148EMI    H0C 2802   0.649   4.474   4.725  1.0103 -0.3681 -1.8593
  148EMI    H0D 2803   0.558   4.392   4.596 -0.9604  0.3187  0.5822
  148EMI    N00 2804   0.436   4.503   4.723  0.1374  0.6072  0.3965
  148EMI    C06 2805   0.164   4.452   4.956 -0.0809 -0.1430  0.6533
  148EMI    H0F 2806   0.230   4.479   5.038 -0.9152 -0.5900  1.4975
  148EMI    C0N 2807   0.051   4.541   4.969  0.4051 -0.6686  0.0635
  148EMI    H0O 2808  -0.018   4.527   4.887 -0.8990  1.8348  0.6157
  148EMI    H0P 2809  -0.001   4.522   5.062 -0.3226  1.8519  0.2401
  148EMI    H0Q 2810   0.084   4.644   4.967  1.0255 -0.8544  0.6197
  148EMI    N02 2811   0.257   4.481   4.842  0.5155  0.0063 -0.3391
  148EMI    H0E 2812   0.139   4.347   4.956 -1.5950  0.2021 -0.5285
  149EMI    C01 2813   1.474   1.028   3.410 -1.0158  0.4218  0.2426
  149EMI    C04 2814   1.572   0.862   3.301  0.5764 -0.2663  0.0060
  149EMI    C03 2815   1.639   0.883   3.413 -0.1824  0.0183 -0.3654
  149EMI    H07 2816   1.409   1.110   3.431  1.0102  2.0302  0.5893
  149EMI    H09 2817   1.579   0.788   3.224 -1.9506 -1.0406  0.4299
  149EMI    H08 2818   1.723   0.824   3.442  0.0864 -0.4051 -1.9321
  149EMI    C05 2819   1.613   1.028   3.617  0.3908  0.0333  0.0504
  149EMI    H0B 2820   1.591   0.951   3.690 -0.5996 -0.8430 -1.1348
  149EMI    H0C 2821   1.717   1.058   3.616  0.2765  0.7725  2.6607
  149EMI    H0D 2822   1.553   1.112   3.648 -0.2187 -0.4318  0.1660
  149EMI    N00 2823   1.576   0.984   3.481 -0.0883 -0.2261 -0.4568
  149EMI    C06 2824   1.375   0.976   3.183  0.2373  0.3236  0.3390
  149EMI    H0F 2825   1.395   1.048   3.105 -1.7442  1.1472  0.5102
  149EMI    C0N 2826   1.306   0.851   3.139 -0.2263  0.9075  0.1026
  149EMI    H0O 2827   1.272   0.799   3.228 -1.3537  0.9599 -0.2852
  149EMI    H0P 2828   1.216   0.870   3.082 -0.8904 -0.4297  0.6656
  149EMI    H0Q 2829   1.369   0.781   3.085 -0.4810  0.8825 -0.1626
  149EMI    N02 2830   1.480   0.964   3.290 -0.6711  0.2378 -0.3350
  149EMI    H0E 2831   1.288   1.008   3.239  0.8542 -0.8290  2.0594
  150EMI    C01 2832   0.129   0.392   0.607 -0.0438 -0.2946  0.6910
  150EMI    C04 2833   0.167   0.207   0.493  0.0516 -0.0660  0.2293
  150EMI    C03 2834   0.046   0.260   0.455 -0.0572  0.4966 -0.5955
  150EMI    H07 2835   0.144   0.469   0.680  0.4224  0.8460 -0.5743
  150EMI    H09 2836   0.221   0.122   0.458  0.7307  0.9194 -1.2221
  150EMI    H08 2837  -0.022   0.217   0.385  0.5386  0.1906 -0.9958
  150EMI    C05 2838  -0.116   0.430   0.541 -0.5413  0.5741  0.2729
  150EMI    H0B 2839  -0.189   0.359   0.577 -0.1026 -1.1953 -2.0659
  150EMI    H0C 2840  -0.113   0.530   0.581  2.7808  0.7258 -0.0741
  150EMI    H0D 2841  -0.128   0.448   0.435 -1.2101  1.7964  0.5393
  150EMI    N00 2842   0.019   0.366   0.538  0.5797  0.4646 -0.0352
  150EMI    C06 2843   0.356   0.291   0.653 -0.7013 -0.8947 -0.2671
  150EMI    H0F 2844   0.395   0.200   0.610  1.9132 -0.9656  1.9804
  150EMI    C0N 2845   0.448   0.410   0.617  0.4761  0.3978 -1.1902
  150EMI    H0O 2846   0.486   0.380   0.520  1.8147 -2.4197  0.1140
  150EMI    H0P 2847   0.392   0.503   0.623 -0.0575  0.0540 -0.7779
  150EMI    H0Q 2848   0.527   0.402   0.690  0.6281 -1.6365 -1.5160
  150EMI    N02 2849   0.218   0.298   0.591  0.0088 -0.5927  0.4488
  150EMI    H0E 2850   0.353   0.260   0.756  1.1037 -2.0393 -0.5140
  151EMI    C01 2851   2.206   1.712   4.463 -0.3618  0.0330  0.9605
  151EMI    C04 2852   2.216   1.910   4.550 -0.3127 -0.7220  0.4285
  151EMI    C03 2853   2.315   1.837   4.602  0.1709  0.1840  0.1761
  151EMI    H07 2854   2.197   1.645   4.381  0.8478  0.2958  0.5919
  151EMI    H09 2855   2.205   2.016   4.556  1.1161 -0.4948 -0.4304
  151EMI    H08 2856   2.398   1.868   4.662  0.6084 -1.8659  0.7240
  151EMI    C05 2857   2.396   1.594   4.565  0.8867  0.2465  0.1108
  151EMI    H0B 2858   2.475   1.614   4.635  1.3039 -1.0197  0.0328
  151EMI    H0C 2859   2.349   1.510   4.614  1.6295  0.7037  1.6852
  151EMI    H0D 2860   2.439   1.566   4.470 -2.4643 -0.7549 -1.2872
  151EMI    N00 2861   2.305   1.711   4.545  0.5795  0.1840  0.3253
  151EMI    C06 2862   2.046   1.879   4.369 -0.5767 -0.6146  0.7492
  151EMI    H0F 2863   1.947   1.866   4.409 -0.2201  2.0477  2.7821
  151EMI    C0N 2864   2.069   2.015   4.299  0.3319 -0.5745  0.9433
  151EMI    H0O 2865   2.170   2.018   4.260  0.0459 -1.8055  0.0357
  151EMI    H0P 2866   1.998   2.026   4.218  1.0855  0.6865  0.4379
  151EMI    H0Q 2867   2.054   2.098   4.368 -0.8144  0.8823 -0.9633
  151EMI    N02 2868   2.149   1.831   4.462  0.6349  0.2572  0.3072
  151EMI    H0E 2869   2.043   1.820   4.278 -0.6589  0.5161 -0.0107
  152EMI    C01 2870   0.185   4.728   2.729  0.4894 -0.0648  0.3829
  152EMI    C04 2871   0.177   4.738   2.507 -0.6174  0.9861 -0.7186
  152EMI    C03 2872   0.305   4.752   2.550  0.4267 -0.2435  0.9250
  152EMI    H07 2873   0.149   4.725   2.829 -0.0779 -1.2924  0.1513
  152EMI    H09 2874   0.146   4.744   2.405  0.2525  1.4896 -0.9569
  152EMI    H08 2875   0.392   4.772   2.491  0.2949 -0.6884  0.5690
  152EMI    C05 2876   0.426   4.722   2.762 -0.1400 -0.3143 -0.1907
  152EMI    H0B 2877   0.477   4.639   2.716  0.6602 -0.0601  0.2097
  152EMI    H0C 2878   0.483   4.813   2.748  0.8727 -1.1889 -2.0400
  152EMI    H0D 2879   0.402   4.704   2.866  3.8898 -1.6858  0.6762
  152EMI    N00 2880   0.307   4.730   2.684 -0.6424  0.4407  0.1564
  152EMI    C06 2881  -0.050   4.709   2.638 -0.8623  0.2516  0.2237
  152EMI    H0F 2882  -0.095   4.806   2.628 -0.3630  0.4590 -0.0679
  152EMI    C0N 2883  -0.109   4.597   2.561  0.1197  0.4106 -0.2877
  152EMI    H0O 2884  -0.109   4.630   2.457 -1.1268  0.0959 -0.4090
  152EMI    H0P 2885  -0.046   4.510   2.569  3.0269  2.3906 -0.1656
  152EMI    H0Q 2886  -0.211   4.587   2.597  0.0522  1.5532 -0.1176
  152EMI    N02 2887   0.100   4.727   2.624  0.0136 -0.1887  0.4846
  152EMI    H0E 2888  -0.061   4.687   2.743 -1.6444  3.0703  0.8151
  153EMI    C01 2889   4.002   0.699   1.780  0.0883  0.0576  0.7401
  153EMI    C04 2890   4.021   0.659   1.994  0.9352 -0.5623 -0.1692
  153EMI    C03 2891   4.144   0.650   1.938  0.1674  0.1708  0.3349
  153EMI    H07 2892   3.964   0.712   1.681  2.9391 -1.4851 -0.7015
  153EMI    H09 2893   3.979   0.651   2.091 -0.5324 -0.2483 -0.7583
  153EMI    H08 2894   4.239   0.628   1.982  0.3388 -1.9329 -0.9676
  153EMI    C05 2895   4.239   0.711   1.712  0.3741 -0.2923 -0.0628
  153EMI    H0B 2896   4.328   0.739   1.766 -0.1513  1.3077  0.0374
  153EMI    H0C 2897   4.254   0.626   1.648  0.8990 -0.3782  0.1715
  153EMI    H0D 2898   4.198   0.788   1.648 -0.9519 -0.3800  0.6294
  153EMI    N00 2899   4.134   0.686   1.806 -0.1770  0.8831  0.1799
  153EMI    C06 2900   3.787   0.673   1.906  0.2368  0.3404  0.9716
  153EMI    H0F 2901   3.748   0.691   1.807  1.5415  0.1600  0.4123
  153EMI    C0N 2902   3.741   0.543   1.972  0.8338 -0.4695  0.1683
  153EMI    H0O 2903   3.642   0.558   2.014 -0.0920 -1.1437 -1.6333
  153EMI    H0P 2904   3.730   0.462   1.901 -3.3124  0.7320 -0.8537
  153EMI    H0Q 2905   3.803   0.517   2.057  2.5717  1.2855 -0.4776
  153EMI    N02 2906   3.935   0.695   1.892 -0.0179 -0.0167 -0.3219
  153EMI    H0E 2907   3.744   0.745   1.975  2.0331  1.4259  1.0073
  154EMI    C01 2908   4.877   4.255   0.124 -0.2146 -0.2008  0.0145
  154EMI    C04 2909   4.790   4.078   0.216 -0.1168 -0.1380  0.1515
  154EMI    C03 2910   4.888   4.037   0.135  0.1619  0.2809  0.2271
  154EMI    H07 2911   4.885   4.355   0.086  0.4840 -0.0152  0.6263
  154EMI    H09 2912   4.725   4.016   0.273  0.8305  0.3682  1.8759
  154EMI    H08 2913   4.914   3.937   0.110 -0.7650 -0.3139  1.5516
  154EMI    C05 2914   5.057   4.173  -0.015 -0.3025  0.0431 -0.5771
  154EMI    H0B 2915   5.072   4.109  -0.100  4.1501  0.2657 -0.2062
  154EMI    H0C 2916   5.053   4.268  -0.065  0.2361 -0.8885 -2.4962
  154EMI    H0D 2917   5.144   4.180   0.049 -0.1033  0.5882 -0.9067
  154EMI    N00 2918   4.944   4.150   0.085  0.2196 -0.6247  0.0999
  154EMI    C06 2919   4.683   4.290   0.276  0.1590 -0.4518 -0.5118
  154EMI    H0F 2920   4.704   4.393   0.251 -0.7598 -0.2791 -0.6156
  154EMI    C0N 2921   4.548   4.246   0.230 -0.0187 -0.7653  0.0083
  154EMI    H0O 2922   4.508   4.159   0.281 -3.4752 -0.3203 -1.6625
  154EMI    H0P 2923   4.481   4.327   0.256  1.0384  0.7344 -1.6880
  154EMI    H0Q 2924   4.533   4.250   0.123 -0.9018  1.2807  0.1670
  154EMI    N02 2925   4.787   4.215   0.212  0.0849  0.2826 -0.4810
  154EMI    H0E 2926   4.694   4.293   0.384  0.5627  2.3605 -0.5669
  155EMI    C01 2927   2.752   0.645   5.038 -0.2625 -0.4099  0.1751
  155EMI    C04 2928   2.771   0.806   5.186 -0.1645 -0.0874  0.0371
  155EMI    C03 2929   2.641   0.788   5.163  0.4977 -0.5920 -0.7255
  155EMI    H07 2930   2.775   0.572   4.964  2.1185  0.4738 -0.0309
  155EMI    H09 2931   2.817   0.875   5.252 -0.4602 -1.6384  1.9519
  155EMI    H08 2932   2.563   0.840   5.214  0.0642  0.0832 -2.0203
  155EMI    C05 2933   2.499   0.633   5.032  0.3132  0.1260 -0.1909
  155EMI    H0B 2934   2.495   0.667   4.930 -0.1194 -0.0660 -0.2395
  155EMI    H0C 2935   2.495   0.527   5.053 -1.3052 -0.0526 -1.2170
  155EMI    H0D 2936   2.419   0.679   5.087 -0.2385  0.0429 -0.9035
  155EMI    N00 2937   2.630   0.682   5.084 -0.5267  0.7393 -0.1148
  155EMI    C06 2938   2.981   0.712   5.081 -0.9174  0.9340 -0.7350
  155EMI    H0F 2939   3.021   0.744   5.176 -0.7932  1.8620 -1.0885
  155EMI    C0N 2940   3.038   0.572   5.068 -0.0332 -1.0516 -0.0897
  155EMI    H0O 2941   3.070   0.543   4.969  0.4516  1.5926 -0.7742
  155EMI    H0P 2942   3.125   0.555   5.130  0.2006  0.0666 -0.0963
  155EMI    H0Q 2943   2.967   0.496   5.100  2.4198 -3.1806  0.5933
  155EMI    N02 2944   2.841   0.717   5.101 -0.3079 -0.2701 -0.5069
  155EMI    H0E 2945   3.021   0.774   5.003 -0.8171  0.8514 -0.7501
  156EMI    C01 2946   3.180   1.533   0.379  0.7491 -0.0316 -0.0448
  156EMI    C04 2947   3.155   1.692   0.526  0.5672  0.5040 -0.0417
  156EMI    C03 2948   3.283   1.661   0.524 -0.5832  0.5666  0.2054
  156EMI    H07 2949   3.172   1.467   0.295  1.2418  0.3731 -0.4154
  156EMI    H09 2950   3.109   1.769   0.585  1.0301 -0.7900  2.1156
  156EMI    H08 2951   3.357   1.712   0.582 -1.2652  0.1813  1.4487
  156EMI    C05 2952   3.417   1.473   0.433 -0.3980 -0.0908 -0.7549
  156EMI    H0B 2953   3.477   1.516   0.355 -2.0102  0.6602 -1.6379
  156EMI    H0C 2954   3.466   1.480   0.529  1.2555 -3.1129 -1.2607
  156EMI    H0D 2955   3.395   1.375   0.393  3.4497 -0.7884 -1.5384
  156EMI    N00 2956   3.296   1.552   0.437 -0.1444 -0.6860  0.2078
  156EMI    C06 2957   2.949   1.582   0.445  0.2417  0.4947  0.2577
  156EMI    H0F 2958   2.925   1.506   0.372  0.7287  2.1425 -1.6970
  156EMI    C0N 2959   2.873   1.565   0.578 -0.6162  0.3336 -0.4036
  156EMI    H0O 2960   2.939   1.528   0.656 -0.8686 -0.1203 -0.4059
  156EMI    H0P 2961   2.832   1.657   0.618 -0.2794 -0.3158  1.5576
  156EMI    H0Q 2962   2.787   1.500   0.572  0.3306 -1.0891  0.6533
  156EMI    N02 2963   3.089   1.605   0.446 -0.1106 -0.5621  0.0664
  156EMI    H0E 2964   2.901   1.668   0.401  0.2075  0.9482  1.1472
  157EMI    C01 2965   0.062   5.066   5.009  0.5957 -0.1241 -0.3986
  157EMI    C04 2966   0.005   4.908   5.151 -0.4555 -0.2412 -0.7443
  157EMI    C03 2967   0.138   4.925   5.150  0.1414 -0.0767  0.1708
  157EMI    H07 2968   0.047   5.144   4.937 -3.1250  2.5666  2.8063
  157EMI    H09 2969  -0.059   4.845   5.210 -1.0713  1.1552  0.1472
  157EMI    H08 2970   0.210   4.872   5.208 -0.3879 -1.2370 -0.1860
  157EMI    C05 2971   0.306   5.069   5.017 -0.0274  0.3542  0.6785
  157EMI    H0B 2972   0.385   5.067   5.091 -0.3311 -0.2078  1.0015
  157EMI    H0C 2973   0.333   4.999   4.939 -0.1265 -0.2404  1.1651
  157EMI    H0D 2974   0.302   5.169   4.977 -1.6587  0.4519  1.0019
  157EMI    N00 2975   0.172   5.020   5.060  0.3575  0.0721 -0.1825
  157EMI    C06 2976  -0.183   4.994   5.024  0.3215  0.0242  0.2189
  157EMI    H0F 2977  -0.218   4.892   5.022 -2.7742  0.9831 -2.2838
  157EMI    C0N 2978  -0.274   5.076   5.114  0.2270  0.3827 -0.5391
  157EMI    H0O 2979  -0.285   5.030   5.211  2.5907 -1.6110 -1.1217
  157EMI    H0P 2980  -0.238   5.178   5.120 -1.6644  1.1004 -0.4780
  157EMI    H0Q 2981  -0.372   5.080   5.067 -0.0974 -0.2432  0.0737
  157EMI    N02 2982  -0.044   4.992   5.054  0.0456 -0.1600  0.2543
  157EMI    H0E 2983  -0.183   5.032   4.923  0.2356 -1.8357 -0.5358
  158EMI    C01 2984   3.926   3.147   0.054 -0.5760 -0.7253  0.6498
  158EMI    C04 2985   4.099   3.189  -0.072  0.3874 -0.0520 -0.0608
  158EMI    C03 2986   4.044   3.074  -0.113 -0.0012  0.1598 -0.5358
  158EMI    H07 2987   3.862   3.144   0.140 -1.3897 -1.6314  0.0399
  158EMI    H09 2988   4.186   3.229  -0.119  1.4418 -1.0217  0.9976
  158EMI    H08 2989   4.072   2.994  -0.177  1.1576  1.6122 -1.9391
  158EMI    C05 2990   3.863   2.925  -0.024  0.5975  0.3948  0.3961
  158EMI    H0B 2991   3.780   2.927   0.045  1.1545 -2.1379  1.2366
  158EMI    H0C 2992   3.827   2.892  -0.120 -1.6828  0.9818  1.0012
  158EMI    H0D 2993   3.924   2.845   0.017 -0.9249 -0.8935  0.2214
  158EMI    N00 2994   3.935   3.048  -0.029 -0.3626  0.3269 -0.2283
  158EMI    C06 2995   4.057   3.369   0.102  0.3839 -0.6536 -0.0894
  158EMI    H0F 2996   4.053   3.356   0.209  1.9279  1.7202  0.3304
  158EMI    C0N 2997   4.208   3.394   0.091  0.1783  0.1312 -0.2307
  158EMI    H0O 2998   4.225   3.484   0.149  1.3314 -0.8752  1.0515
  158EMI    H0P 2999   4.259   3.304   0.122 -1.9838 -1.3783 -0.7658
  158EMI    H0Q 3000   4.234   3.418  -0.012  1.6489 -1.1256 -0.1740
  158EMI    N02 3001   4.021   3.243   0.026 -0.4522 -0.4502  0.1783
  158EMI    H0E 3002   3.998   3.454   0.071 -1.6680 -2.0610 -0.2587
  159EMI    C01 3003   3.202   4.306   3.772  0.4812 -0.2730  0.0425
  159EMI    C04 3004   3.344   4.286   3.933  0.2824  0.2120 -0.4652
  159EMI    C03 3005   3.295   4.411   3.933 -0.3483  1.5411  0.2016
  159EMI    H07 3006   3.147   4.283   3.684 -1.6673  1.1060  0.9399
  159EMI    H09 3007   3.408   4.237   4.003 -2.0712 -1.1830  0.8402
  159EMI    H08 3008   3.325   4.483   4.006  2.0802 -1.7288  2.7601
  159EMI    C05 3009   3.122   4.539   3.802 -0.2081 -0.2562  0.2090
  159EMI    H0B 3010   3.064   4.529   3.712  1.0347  2.5660 -1.0317
  159EMI    H0C 3011   3.051   4.561   3.880  0.5785  1.1228  0.5817
  159EMI    H0D 3012   3.187   4.624   3.784  0.7056 -1.3666 -2.1944
  159EMI    N00 3013   3.212   4.425   3.826 -0.0626 -0.0932 -0.4974
  159EMI    C06 3014   3.286   4.078   3.790  0.2468  0.1377  0.3927
  159EMI    H0F 3015   3.200   4.065   3.727 -2.6983  5.2617  2.7584
  159EMI    C0N 3016   3.419   4.047   3.719  0.6904 -0.7363 -0.4653
  159EMI    H0O 3017   3.394   3.978   3.639  0.5003 -1.6885  0.4009
  159EMI    H0P 3018   3.456   4.137   3.671  0.1621  0.4661  1.2925
  159EMI    H0Q 3019   3.503   4.010   3.775  1.2187 -1.8324 -1.9110
  159EMI    N02 3020   3.278   4.219   3.829  0.6581  0.0023  0.0007
  159EMI    H0E 3021   3.254   4.007   3.865  0.9244 -2.7020 -1.8244
  160EMI    C01 3022   4.764   3.683   0.679  0.1939  0.6102  0.2063
  160EMI    C04 3023   4.979   3.647   0.682 -0.1419 -0.6214  0.3603
  160EMI    C03 3024   4.944   3.685   0.802 -0.9329  0.1144 -0.0336
  160EMI    H07 3025   4.660   3.683   0.655 -0.0627 -0.2855  1.2657
  160EMI    H09 3026   5.067   3.614   0.632 -0.0259  1.4958 -0.9323
  160EMI    H08 3027   5.014   3.699   0.881  0.4256  1.3031 -1.3964
  160EMI    C05 3028   4.732   3.762   0.918 -0.0611 -0.1582 -0.0442
  160EMI    H0B 3029   4.630   3.739   0.890 -0.1593  1.6225 -1.3117
  160EMI    H0C 3030   4.765   3.710   1.006  0.2879 -1.4492 -0.9100
  160EMI    H0D 3031   4.744   3.869   0.922  0.2537 -0.1102 -1.5844
  160EMI    N00 3032   4.812   3.716   0.801 -0.6929  0.1473 -0.5905
  160EMI    C06 3033   4.864   3.607   0.459  0.8574  0.2188  0.2406
  160EMI    H0F 3034   4.760   3.587   0.438  0.7463 -1.0085  1.7609
  160EMI    C0N 3035   4.928   3.714   0.373 -0.0829  0.5782  0.1739
  160EMI    H0O 3036   4.921   3.693   0.266  1.0212 -0.3995  0.2603
  160EMI    H0P 3037   4.877   3.809   0.382 -0.9225  0.3444 -1.6975
  160EMI    H0Q 3038   5.030   3.737   0.402 -0.2927  1.3712  0.2762
  160EMI    N02 3039   4.870   3.660   0.602  0.2154  0.5466 -0.2199
  160EMI    H0E 3040   4.906   3.508   0.461 -1.9776 -1.1088 -0.3552
  161EMI    C01 3041   0.550   4.351   4.072 -1.0736 -0.6907 -0.4922
  161EMI    C04 3042   0.567   4.348   4.291 -0.3292 -1.0908 -0.6176
  161EMI    C03 3043   0.451   4.299   4.256  0.1917 -0.9845 -0.4708
  161EMI    H07 3044   0.574   4.365   3.969 -1.9807  4.5725 -0.2636
  161EMI    H09 3045   0.611   4.367   4.387  2.0265 -0.5627 -1.7206
  161EMI    H08 3046   0.366   4.268   4.313  1.0679 -3.1132 -0.2479
  161EMI    C05 3047   0.304   4.286   4.049  0.0308 -0.1756  0.3350
  161EMI    H0B 3048   0.222   4.331   4.103 -0.3903 -0.1275 -0.3328
  161EMI    H0C 3049   0.302   4.320   3.947  0.4487  0.1838  0.4428
  161EMI    H0D 3050   0.303   4.178   4.051  2.2962 -0.2460  1.8457
  161EMI    N00 3051   0.432   4.319   4.120 -0.4407 -0.4207 -0.3139
  161EMI    C06 3052   0.773   4.410   4.175 -0.8635  0.2274  0.9374
  161EMI    H0F 3053   0.779   4.475   4.262  0.4510  0.0466  0.9966
  161EMI    C0N 3054   0.879   4.311   4.181  0.3206  0.2893  0.2636
  161EMI    H0O 3055   0.967   4.348   4.232  1.7221 -2.0745 -0.2561
  161EMI    H0P 3056   0.836   4.226   4.233 -0.0546  0.2479 -0.1078
  161EMI    H0Q 3057   0.912   4.265   4.088  1.0704  1.7938 -0.2333
  161EMI    N02 3058   0.635   4.365   4.174  0.7161 -0.0480 -0.2541
  161EMI    H0E 3059   0.791   4.482   4.097  2.7997  0.3057  1.6418
  162EMI    C01 3060   1.547   1.532   3.466 -0.2310  0.2070  0.4138
  162EMI    C04 3061   1.743   1.487   3.546 -1.0685 -0.2489 -1.0431
  162EMI    C03 3062   1.654   1.490   3.648  0.3110 -0.2730  0.1012
  162EMI    H07 3063   1.468   1.541   3.395 -0.7516 -0.0401  0.9441
  162EMI    H09 3064   1.850   1.482   3.546 -1.0971 -1.9357  0.6750
  162EMI    H08 3065   1.681   1.475   3.750  1.2125 -1.4813 -0.2834
  162EMI    C05 3066   1.396   1.492   3.660 -0.2793  0.1297  0.0572
  162EMI    H0B 3067   1.325   1.555   3.609 -0.9825  1.1662  2.1964
  162EMI    H0C 3068   1.357   1.391   3.662 -0.6970  0.2922  0.1888
  162EMI    H0D 3069   1.402   1.523   3.763 -1.9442 -0.0892  0.2475
  162EMI    N00 3070   1.527   1.503   3.590  0.7779  0.3756 -0.0943
  162EMI    C06 3071   1.733   1.549   3.302  0.1931 -0.0307 -0.2487
  162EMI    H0F 3072   1.823   1.490   3.298  0.7270  0.5455  1.8813
  162EMI    C0N 3073   1.639   1.507   3.181  0.1140  0.1323 -0.5311
  162EMI    H0O 3074   1.607   1.406   3.204 -3.6370  1.4902  1.0155
  162EMI    H0P 3075   1.547   1.564   3.173 -1.4073 -2.0307  0.5395
  162EMI    H0Q 3076   1.699   1.519   3.091 -1.3406  1.3868 -1.3885
  162EMI    N02 3077   1.674   1.528   3.435 -0.1418  0.0676 -0.3136
  162EMI    H0E 3078   1.767   1.652   3.302  5.0684 -1.2655  3.4309
  163EMI    C01 3079   4.126   1.438   4.340 -0.7980  0.0100  0.3044
  163EMI    C04 3080   4.022   1.462   4.151 -0.4009  0.0278 -0.3945
  163EMI    C03 3081   4.058   1.332   4.160  0.2686 -0.6977  0.7257
  163EMI    H07 3082   4.172   1.456   4.434  1.2760  1.3495 -0.8942
  163EMI    H09 3083   3.970   1.515   4.075  1.4601  0.1381 -1.6579
  163EMI    H08 3084   4.044   1.246   4.098 -0.5445 -0.6795  0.8781
  163EMI    C05 3085   4.229   1.220   4.309  0.7789 -0.6398  0.0324
  163EMI    H0B 3086   4.175   1.142   4.360 -0.3364 -0.9254 -1.5011
  163EMI    H0C 3087   4.284   1.185   4.223 -0.5228 -2.2209 -0.2044
  163EMI    H0D 3088   4.294   1.254   4.388  0.4126 -1.3285  0.6434
  163EMI    N00 3089   4.140   1.331   4.268 -0.4322 -0.0422 -0.7814
  163EMI    C06 3090   4.001   1.660   4.303  0.4701  0.0287  0.1815
  163EMI    H0F 3091   4.039   1.733   4.233 -0.5855 -1.2003 -1.8016
  163EMI    C0N 3092   3.847   1.661   4.316  0.0418 -0.4338 -0.1701
  163EMI    H0O 3093   3.825   1.767   4.324  0.4191 -0.2999 -0.8421
  163EMI    H0P 3094   3.802   1.618   4.228  3.6851 -0.4483 -2.2119
  163EMI    H0Q 3095   3.805   1.614   4.404  0.9820 -3.5045 -1.2490
  163EMI    N02 3096   4.058   1.529   4.266  0.2310  0.7946 -0.2287
  163EMI    H0E 3097   4.026   1.692   4.403  1.9941 -1.0132  0.1654
  164EMI    C01 3098   1.866   2.581   1.038 -0.5527 -0.0884  0.5813
  164EMI    C04 3099   1.688   2.509   0.939  0.8364 -0.0015 -0.5628
  164EMI    C03 3100   1.787   2.477   0.859 -1.4815 -0.4017 -0.4491
  164EMI    H07 3101   1.935   2.627   1.105  0.3829 -3.0069  1.7655
  164EMI    H09 3102   1.585   2.485   0.926  0.5579  0.6231  0.4145
  164EMI    H08 3103   1.787   2.424   0.766  0.8756 -0.1885 -0.6510
  164EMI    C05 3104   2.039   2.501   0.885 -0.0101 -0.2999 -0.0531
  164EMI    H0B 3105   2.067   2.585   0.823 -0.7402  1.1413  1.5050
  164EMI    H0C 3106   2.100   2.504   0.974 -2.8040 -2.2113  2.0959
  164EMI    H0D 3107   2.040   2.405   0.836 -3.3661 -1.2717  1.5194
  164EMI    N00 3108   1.900   2.519   0.927 -0.6239  0.3257  0.1425
  164EMI    C06 3109   1.655   2.642   1.148  0.2502 -0.0576  0.3268
  164EMI    H0F 3110   1.565   2.672   1.097  0.8119  2.0280  0.4606
  164EMI    C0N 3111   1.621   2.565   1.269 -0.3371  0.6531  0.1543
  164EMI    H0O 3112   1.713   2.524   1.307  0.2218  0.2956 -1.5290
  164EMI    H0P 3113   1.585   2.625   1.352 -0.7178  0.9900 -0.2472
  164EMI    H0Q 3114   1.560   2.483   1.233  0.1469  0.9635 -1.4522
  164EMI    N02 3115   1.737   2.578   1.047  0.0812 -0.4629 -0.2647
  164EMI    H0E 3116   1.713   2.730   1.168  0.4005  0.2287 -1.2624
  165EMI    C01 3117   2.343   1.778   3.611 -0.2357  0.0132  0.0449
  165EMI    C04 3118   2.329   1.700   3.406 -0.3711  0.3102 -0.1979
  165EMI    C03 3119   2.424   1.787   3.404 -0.2315  0.3413 -0.2864
  165EMI    H07 3120   2.331   1.787   3.716 -0.3731  0.1067  0.0217
  165EMI    H09 3121   2.281   1.639   3.332 -0.0420 -0.7323  0.4229
  165EMI    H08 3122   2.477   1.827   3.321 -0.7120 -0.7058 -1.1193
  165EMI    C05 3123   2.524   1.924   3.605 -0.4512  0.0288  0.2470
  165EMI    H0B 3124   2.510   1.927   3.712 -2.4359  0.4522  0.0210
  165EMI    H0C 3125   2.628   1.908   3.582 -0.2444 -0.0915  1.2113
  165EMI    H0D 3126   2.504   2.017   3.554  0.6662 -0.3685 -0.9732
  165EMI    N00 3127   2.438   1.830   3.540  0.1000 -0.9560  0.1954
  165EMI    C06 3128   2.149   1.638   3.577  0.3134  0.5316  0.5989
  165EMI    H0F 3129   2.170   1.597   3.674 -1.3308 -0.2813  0.6577
  165EMI    C0N 3130   2.043   1.741   3.581  0.1919  0.3512  0.1425
  165EMI    H0O 3131   2.058   1.828   3.645 -0.6511  1.1663 -0.7242
  165EMI    H0P 3132   2.043   1.795   3.487 -0.8538  2.6796  1.3670
  165EMI    H0Q 3133   1.940   1.707   3.579  1.3216 -3.4357 -1.1744
  165EMI    N02 3134   2.273   1.700   3.535 -0.1221 -0.1754 -0.7464
  165EMI    H0E 3135   2.104   1.557   3.520  0.6371  0.6797  0.1217
  166EMI    C01 3136   0.965   0.580   3.348 -0.8063  0.0175 -0.0103
  166EMI    C04 3137   0.813   0.570   3.500  0.6209  0.0030 -0.2764
  166EMI    C03 3138   0.832   0.700   3.473 -0.0279 -0.7899 -0.2831
  166EMI    H07 3139   1.033   0.544   3.274 -0.1581 -1.6957  1.3299
  166EMI    H09 3140   0.749   0.515   3.565 -1.9462  0.0247 -2.6110
  166EMI    H08 3141   0.780   0.784   3.512 -2.1138 -1.9726 -0.3225
  166EMI    C05 3142   0.959   0.821   3.297 -0.0785 -0.4125 -0.1537
  166EMI    H0B 3143   0.890   0.857   3.222  0.1600  0.2292 -0.0753
  166EMI    H0C 3144   0.975   0.908   3.359  1.3021 -0.1891 -0.7837
  166EMI    H0D 3145   1.054   0.801   3.249 -0.2453 -0.3552 -0.5129
  166EMI    N00 3146   0.917   0.700   3.365 -1.1161  0.4072 -0.1042
  166EMI    C06 3147   0.939   0.359   3.466  0.3066  0.3300  0.0444
  166EMI    H0F 3148   1.014   0.354   3.543  2.0231 -1.4340 -1.6022
  166EMI    C0N 3149   0.808   0.275   3.475  0.1188 -0.1805  0.1878
  166EMI    H0O 3150   0.762   0.281   3.573  0.7857  0.7140  0.4604
  166EMI    H0P 3151   0.739   0.302   3.396  0.4036 -0.2241 -0.0787
  166EMI    H0Q 3152   0.834   0.171   3.461  0.2739  0.0782 -1.7212
  166EMI    N02 3153   0.907   0.500   3.434 -0.6611 -0.3051 -0.0547
  166EMI    H0E 3154   1.000   0.326   3.382 -1.0618 -0.3157 -0.7266
  167EMI    C01 3155   0.871   4.242   5.070 -1.0872  0.0275 -0.3312
  167EMI    C04 3156   0.882   4.233   5.290 -0.0693 -0.0136 -0.3682
  167EMI    C03 3157   0.937   4.351   5.257  0.3202  0.2088  0.2553
  167EMI    H07 3158   0.846   4.220   4.969 -0.3571 -2.5655 -0.0290
  167EMI    H09 3159   0.877   4.187   5.386  2.2660 -1.8617 -1.0279
  167EMI    H08 3160   0.981   4.421   5.326 -0.9300 -0.3949  1.7131
  167EMI    C05 3161   0.959   4.475   5.036 -0.1028  0.1244 -0.3962
  167EMI    H0B 3162   0.995   4.554   5.100 -2.7038  0.0854  1.3025
  167EMI    H0C 3163   1.027   4.437   4.962 -1.7424  0.1195 -1.9540
  167EMI    H0D 3164   0.870   4.507   4.983 -3.3639 -1.7651  3.3613
  167EMI    N00 3165   0.919   4.358   5.116 -0.4467  0.3213 -0.3243
  167EMI    C06 3166   0.788   4.026   5.157 -0.5115 -0.2000 -0.5660
  167EMI    H0F 3167   0.802   3.990   5.056  0.4714  1.0868 -0.9143
  167EMI    C0N 3168   0.854   3.925   5.248  0.1938  0.3620 -0.1798
  167EMI    H0O 3169   0.958   3.922   5.217 -0.4715  0.9616 -2.6779
  167EMI    H0P 3170   0.860   3.956   5.352  0.4748  0.0596 -0.1013
  167EMI    H0Q 3171   0.802   3.831   5.234 -0.7801  1.2029 -2.6632
  167EMI    N02 3172   0.840   4.164   5.171 -0.1687  0.0386  0.3727
  167EMI    H0E 3173   0.681   4.029   5.173 -1.0257 -2.6024 -2.8287
  168EMI    C01 3174   3.392   3.809   0.035 -0.2804  0.4543 -0.8464
  168EMI    C04 3175   3.274   3.635   0.063 -0.2736  0.2858 -0.3687
  168EMI    C03 3176   3.400   3.591   0.056 -0.6006 -0.0644  0.4555
  168EMI    H07 3177   3.420   3.912   0.025 -0.7296  0.7307  0.4972
  168EMI    H09 3178   3.177   3.592   0.069 -0.4288  0.8371  2.4871
  168EMI    H08 3179   3.439   3.492   0.058 -0.9006 -0.1857  0.3739
  168EMI    C05 3180   3.621   3.712   0.051  0.3398  0.8920  0.1537
  168EMI    H0B 3181   3.657   3.795  -0.008 -1.1464  2.8098  1.7931
  168EMI    H0C 3182   3.637   3.728   0.157 -1.4926 -0.1210  0.6126
  168EMI    H0D 3183   3.675   3.624   0.018  1.3164  1.6404 -0.3016
  168EMI    N00 3184   3.473   3.704   0.039  0.5895 -0.1033  0.4915
  168EMI    C06 3185   3.153   3.853   0.044  0.5957 -0.2329 -0.1236
  168EMI    H0F 3186   3.094   3.807   0.122  1.8124 -1.2037  0.2381
  168EMI    C0N 3187   3.184   3.998   0.075  0.0646  0.1361  0.2749
  168EMI    H0O 3188   3.091   4.054   0.082 -0.2947 -0.4910  0.5921
  168EMI    H0P 3189   3.250   4.017   0.160 -0.6339 -0.8283  1.0550
  168EMI    H0Q 3190   3.241   4.042  -0.006  0.5244 -2.1325 -0.6860
  168EMI    N02 3191   3.272   3.770   0.054 -0.3096  0.2028 -0.0815
  168EMI    H0E 3192   3.115   3.853  -0.057  0.6239  0.3790 -0.1375
  169EMI    C01 3193   1.869   1.383   1.427  0.1952 -0.7562  0.0568
  169EMI    C04 3194   2.062   1.343   1.510  0.2793  0.3967 -0.1380
  169EMI    C03 3195   2.010   1.446   1.581  0.0053  0.1322 -0.0179
  169EMI    H07 3196   1.778   1.377   1.372 -0.5308  1.2477  0.9223
  169EMI    H09 3197   2.160   1.300   1.521 -0.3924 -1.0584  0.4195
  169EMI    H08 3198   2.058   1.503   1.657 -0.2101 -1.7390  1.6194
  169EMI    C05 3199   1.788   1.566   1.577  0.1127 -0.0163 -0.0504
  169EMI    H0B 3200   1.688   1.532   1.553  0.3881 -1.4650  0.7464
  169EMI    H0C 3201   1.803   1.587   1.681  0.0273 -1.0984  0.1896
  169EMI    H0D 3202   1.804   1.652   1.512  0.9896 -0.3470 -0.2867
  169EMI    N00 3203   1.885   1.468   1.529  0.1133  0.2248  0.0287
  169EMI    C06 3204   1.992   1.195   1.306 -0.4143 -0.1763 -0.2133
  169EMI    H0F 3205   2.062   1.219   1.227 -0.1425 -0.3240 -0.0173
  169EMI    C0N 3206   2.068   1.076   1.371 -0.3619 -0.3404  0.0957
  169EMI    H0O 3207   2.006   1.032   1.448 -0.5248  1.4865  1.0713
  169EMI    H0P 3208   2.081   0.994   1.302  0.0751 -0.0344 -0.1933
  169EMI    H0Q 3209   2.162   1.110   1.414 -1.8564  4.9472 -0.1245
  169EMI    N02 3210   1.979   1.316   1.397 -0.3604  0.1893  0.4452
  169EMI    H0E 3211   1.896   1.155   1.277 -0.8175  0.2554  0.4967
  170EMI    C01 3212   4.528   3.187   4.859 -0.0074  0.2125 -0.6322
  170EMI    C04 3213   4.469   3.117   5.054  0.1540 -0.6596 -0.0623
  170EMI    C03 3214   4.485   3.251   5.057  0.0370  0.0287 -0.0136
  170EMI    H07 3215   4.556   3.189   4.756  1.2759  1.1739 -0.2945
  170EMI    H09 3216   4.445   3.048   5.132  0.1428  1.9709  2.4307
  170EMI    H08 3217   4.470   3.311   5.144 -0.2878  0.6709 -0.5080
  170EMI    C05 3218   4.544   3.430   4.885  0.1210 -0.6125 -0.9290
  170EMI    H0B 3219   4.650   3.446   4.901 -0.2030  1.5395 -0.6291
  170EMI    H0C 3220   4.535   3.443   4.779  2.0781  0.5525 -1.0143
  170EMI    H0D 3221   4.492   3.506   4.942  0.4472  0.3735 -1.9252
  170EMI    N00 3222   4.511   3.296   4.933 -0.5751  0.3210  0.3993
  170EMI    C06 3223   4.518   2.938   4.873 -0.0087 -0.4067 -0.6131
  170EMI    H0F 3224   4.478   2.939   4.772 -0.7619  0.9147 -0.3323
  170EMI    C0N 3225   4.658   2.870   4.887  0.2705  0.7130 -0.6593
  170EMI    H0O 3226   4.668   2.829   4.987 -1.3464 -0.8126 -1.0792
  170EMI    H0P 3227   4.668   2.786   4.819 -0.5335  0.9290 -1.0608
  170EMI    H0Q 3228   4.733   2.945   4.867 -0.0995  1.0894 -0.6530
  170EMI    N02 3229   4.506   3.077   4.929  1.1302  0.2954 -0.5404
  170EMI    H0E 3230   4.442   2.879   4.923  0.6623 -0.7500  0.0078
  171EMI    C01 3231   4.698   0.751   0.705 -0.5060 -0.3676 -0.6662
  171EMI    C04 3232   4.756   0.554   0.800 -0.1067  0.5208 -0.3797
  171EMI    C03 3233   4.863   0.637   0.813  0.0380 -0.2984 -0.5056
  171EMI    H07 3234   4.647   0.834   0.662  1.6887  1.5672  0.2252
  171EMI    H09 3235   4.752   0.451   0.828 -0.8127 -0.4249 -3.5441
  171EMI    H08 3236   4.958   0.615   0.858 -0.4139 -1.7896 -0.2275
  171EMI    C05 3237   4.921   0.860   0.733  0.8207 -0.4548 -0.0665
  171EMI    H0B 3238   4.908   0.904   0.635  1.2077 -1.7046 -0.6909
  171EMI    H0C 3239   4.901   0.933   0.810  3.1100 -0.6479  0.7918
  171EMI    H0D 3240   5.023   0.828   0.748  1.3424 -0.3717 -2.9330
  171EMI    N00 3241   4.826   0.751   0.743 -0.3824 -0.2902 -0.3186
  171EMI    C06 3242   4.532   0.561   0.672  0.1771  0.0955 -0.2110
  171EMI    H0F 3243   4.492   0.641   0.611  1.3804  0.0980 -1.0285
  171EMI    C0N 3244   4.555   0.439   0.589 -0.4689  0.3089 -0.3701
  171EMI    H0O 3245   4.463   0.404   0.544 -1.2530  0.5955  0.9454
  171EMI    H0P 3246   4.630   0.446   0.512  0.7428 -1.6591  0.5371
  171EMI    H0Q 3247   4.594   0.359   0.651 -0.2740 -0.7697 -1.8379
  171EMI    N02 3248   4.657   0.626   0.730 -0.2788  0.3874 -0.7717
  171EMI    H0E 3249   4.460   0.533   0.747  0.8076  0.7995  0.6696
  172EMI    C01 3250   2.953   3.573   3.571  0.7317 -0.3954 -0.0550
  172EMI    C04 3251   3.141   3.584   3.672 -0.1816  0.1969 -0.0520
  172EMI    C03 3252   3.045   3.602   3.766  0.0694 -0.6227 -0.6463
  172EMI    H07 3253   2.877   3.556   3.497  0.7681  0.7001 -0.3556
  172EMI    H09 3254   3.246   3.568   3.683 -0.3709  0.0994  1.8254
  172EMI    H08 3255   3.042   3.614   3.872  1.1709  0.8090 -0.7544
  172EMI    C05 3256   2.796   3.641   3.756 -0.0996  0.5024 -0.5990
  172EMI    H0B 3257   2.746   3.557   3.801 -0.1054  0.2661 -1.0415
  172EMI    H0C 3258   2.800   3.727   3.822  0.1655 -1.0399  1.5009
  172EMI    H0D 3259   2.745   3.674   3.666  0.1782 -0.1618 -1.0012
  172EMI    N00 3260   2.928   3.594   3.703  0.4094 -0.2638 -0.0319
  172EMI    C06 3261   3.162   3.541   3.425 -0.1595  0.0046  0.8541
  172EMI    H0F 3262   3.096   3.548   3.340  0.4605  2.8239  0.5113
  172EMI    C0N 3263   3.278   3.643   3.417 -0.2974  0.0671 -0.2013
  172EMI    H0O 3264   3.322   3.637   3.318 -2.1286  0.4126 -1.0855
  172EMI    H0P 3265   3.250   3.747   3.428 -2.2080 -0.0344 -3.0089
  172EMI    H0Q 3266   3.352   3.610   3.488  1.2521 -0.0104 -1.7777
  172EMI    N02 3267   3.084   3.563   3.547 -0.0373 -0.5069 -0.6221
  172EMI    H0E 3268   3.197   3.439   3.420  0.7919  0.3818 -1.3473
  173EMI    C01 3269   3.841   3.291   3.886 -0.0600  0.1364 -0.2096
  173EMI    C04 3270   3.980   3.216   3.744 -0.2419 -0.4857 -0.2428
  173EMI    C03 3271   3.910   3.114   3.786  0.1660  0.2909  0.3238
  173EMI    H07 3272   3.780   3.365   3.933  1.7669  1.1284  0.6920
  173EMI    H09 3273   4.070   3.222   3.687 -0.4393 -0.3631 -0.5432
  173EMI    H08 3274   3.921   3.009   3.778 -2.1678 -0.1999  2.3329
  173EMI    C05 3275   3.713   3.090   3.935 -0.4255 -0.5759  0.3502
  173EMI    H0B 3276   3.738   3.101   4.040 -0.6683  1.9798  0.1929
  173EMI    H0C 3277   3.615   3.134   3.929  0.3810  1.2628  0.0091
  173EMI    H0D 3278   3.713   2.986   3.908 -0.0517 -0.4647 -0.0932
  173EMI    N00 3279   3.813   3.163   3.862  0.3547 -0.8090 -0.4952
  173EMI    C06 3280   3.953   3.474   3.744 -0.4110 -0.5797  0.5957
  173EMI    H0F 3281   3.858   3.522   3.727  0.5815  0.9302 -0.9743
  173EMI    C0N 3282   4.042   3.554   3.838  0.5127 -0.2438  0.0285
  173EMI    H0O 3283   4.034   3.659   3.815 -0.0092 -0.0517  1.0276
  173EMI    H0P 3284   3.998   3.529   3.934  2.7264  0.8838  1.4217
  173EMI    H0Q 3285   4.146   3.521   3.837  0.7134  0.2784 -2.1160
  173EMI    N02 3286   3.925   3.329   3.794  0.3103  0.0321  0.1058
  173EMI    H0E 3287   4.006   3.456   3.652  0.3480  0.5047  0.8093
  174EMI    C01 3288   3.743   1.554   1.992 -0.2588  1.1709  0.6125
  174EMI    C04 3289   3.674   1.420   1.838  0.3069  0.0062 -0.3227
  174EMI    C03 3290   3.581   1.420   1.930  0.3942 -0.0633 -0.2853
  174EMI    H07 3291   3.813   1.601   2.057 -0.6971  2.3203  0.2824
  174EMI    H09 3292   3.675   1.361   1.749 -0.7047  1.5080 -1.4012
  174EMI    H08 3293   3.486   1.372   1.937 -0.9227  2.3707 -0.4484
  174EMI    C05 3294   3.551   1.544   2.159  0.1258  0.2524  0.4712
  174EMI    H0B 3295   3.451   1.528   2.121  1.0230 -0.3782 -1.8271
  174EMI    H0C 3296   3.577   1.481   2.242  2.1785  0.5655  0.1045
  174EMI    H0D 3297   3.571   1.650   2.164 -1.3517  0.6490 -0.9330
  174EMI    N00 3298   3.627   1.505   2.029 -0.0038 -0.1308 -0.0988
  174EMI    C06 3299   3.915   1.505   1.830 -0.2520  0.1827 -0.6266
  174EMI    H0F 3300   3.987   1.549   1.898  0.5284  0.6585 -1.7453
  174EMI    C0N 3301   3.962   1.367   1.798 -0.3758  0.2010  0.2484
  174EMI    H0O 3302   4.050   1.364   1.736 -1.5043 -1.2026 -1.3657
  174EMI    H0P 3303   3.985   1.328   1.897  0.3851 -2.9346 -1.0501
  174EMI    H0Q 3304   3.892   1.293   1.759  0.9605 -1.8259  1.4822
  174EMI    N02 3305   3.781   1.495   1.884  0.5128 -0.1182 -0.1845
  174EMI    H0E 3306   3.902   1.572   1.746  0.2183 -0.7130 -1.4233
  175EMI    C01 3307   0.453   4.763   1.512 -0.3313  0.2337  0.3019
  175EMI    C04 3308   0.357   4.584   1.593 -0.4926  0.3621  0.0108
  175EMI    C03 3309   0.296   4.691   1.642 -0.0188 -0.4772 -0.0731
  175EMI    H07 3310   0.522   4.825   1.460  0.2533 -1.2641 -0.7602
  175EMI    H09 3311   0.323   4.483   1.600 -0.5718  0.3720 -0.2246
  175EMI    H08 3312   0.213   4.699   1.709 -1.1914  0.9129 -1.6167
  175EMI    C05 3313   0.302   4.939   1.602  0.2472 -0.5566  0.1501
  175EMI    H0B 3314   0.305   4.965   1.707  1.8433 -0.5091  0.1143
  175EMI    H0C 3315   0.382   4.995   1.555  0.3104 -0.1754  0.7081
  175EMI    H0D 3316   0.202   4.948   1.561  0.2874  0.1852  0.1960
  175EMI    N00 3317   0.348   4.802   1.585  0.7045 -0.0432 -0.1787
  175EMI    C06 3318   0.556   4.541   1.453  0.5927  0.0969 -0.0537
  175EMI    H0F 3319   0.618   4.515   1.537  0.6936 -1.2727 -0.5225
  175EMI    C0N 3320   0.494   4.424   1.385  0.0146  0.3565  0.2595
  175EMI    H0O 3321   0.450   4.366   1.465 -0.4944  0.8418  0.3319
  175EMI    H0P 3322   0.425   4.460   1.310  0.6793  0.0188 -0.5341
  175EMI    H0Q 3323   0.554   4.364   1.317  0.1497  1.1881 -0.3624
  175EMI    N02 3324   0.456   4.630   1.516 -0.1616  0.3996 -0.3652
  175EMI    H0E 3325   0.610   4.603   1.383  0.9320  1.7046  1.5557
  176EMI    C01 3326   0.613   1.729   2.737  0.5808  0.3003 -0.2261
  176EMI    C04 3327   0.742   1.584   2.643  0.3878 -0.5652 -0.3971
  176EMI    C03 3328   0.793   1.706   2.624 -0.3445 -0.0913  0.1974
  176EMI    H07 3329   0.526   1.767   2.787  0.0906 -0.9196 -0.1271
  176EMI    H09 3330   0.770   1.483   2.623  1.4393 -0.0460 -1.7137
  176EMI    H08 3331   0.890   1.722   2.581 -0.2723  0.0243  0.4012
  176EMI    C05 3332   0.717   1.948   2.671 -0.3114  0.8515 -0.5394
  176EMI    H0B 3333   0.727   1.986   2.772  1.1919 -2.6915  0.8094
  176EMI    H0C 3334   0.802   1.975   2.610 -2.1466  5.1252 -1.6661
  176EMI    H0D 3335   0.629   1.991   2.625 -0.3911  1.7996  0.4645
  176EMI    N00 3336   0.708   1.801   2.682 -0.3705 -0.0903  0.1684
  176EMI    C06 3337   0.532   1.492   2.753  0.2021 -0.4689  0.0427
  176EMI    H0F 3338   0.439   1.538   2.783 -0.4648 -2.4823  1.2853
  176EMI    C0N 3339   0.491   1.394   2.645  0.0737  0.7279  0.0875
  176EMI    H0O 3340   0.564   1.315   2.658 -0.6452  0.1333  0.5615
  176EMI    H0P 3341   0.393   1.353   2.664  0.7787 -0.6270  0.9027
  176EMI    H0Q 3342   0.490   1.437   2.546 -1.2248  0.0806 -0.1882
  176EMI    N02 3343   0.624   1.598   2.713 -0.2815  0.5314 -0.4109
  176EMI    H0E 3344   0.561   1.438   2.842 -2.0266 -0.2104  1.0013
  177EMI    C01 3345   1.668   2.961   0.832 -1.0975  0.0409 -0.6358
  177EMI    C04 3346   1.482   2.877   0.884 -0.1200 -0.8738 -0.1652
  177EMI    C03 3347   1.535   2.797   0.791  0.0790 -0.2961  0.2575
  177EMI    H07 3348   1.758   3.019   0.834 -1.4210  0.5550  0.8756
  177EMI    H09 3349   1.389   2.881   0.937  1.0183  0.5758  1.8818
  177EMI    H08 3350   1.501   2.704   0.752  0.2186 -0.2358 -0.0064
  177EMI    C05 3351   1.752   2.803   0.658  0.4086  0.4959 -0.2385
  177EMI    H0B 3352   1.856   2.797   0.687  0.3634 -1.0711 -0.3104
  177EMI    H0C 3353   1.701   2.715   0.621 -0.2665  0.9995 -0.5034
  177EMI    H0D 3354   1.750   2.867   0.572 -0.4389  0.4641 -0.2480
  177EMI    N00 3355   1.656   2.855   0.756 -0.0862 -0.9361  0.5252
  177EMI    C06 3356   1.552   3.083   1.017 -0.3270 -0.3465 -0.2760
  177EMI    H0F 3357   1.462   3.138   0.996  1.3299  2.0922 -1.6260
  177EMI    C0N 3358   1.556   3.027   1.155  0.5138 -0.2954  0.1151
  177EMI    H0O 3359   1.649   2.977   1.177  1.0040  0.9559  1.0557
  177EMI    H0P 3360   1.521   3.100   1.228  0.3235  1.0407 -1.2539
  177EMI    H0Q 3361   1.476   2.955   1.167 -1.0855  1.4755  0.7996
  177EMI    N02 3362   1.569   2.979   0.913  0.4655 -0.0813 -0.3818
  177EMI    H0E 3363   1.632   3.155   1.006  0.2777 -0.4770  2.5232
  178EMI    C01 3364   0.125   4.014   0.477 -0.1397  0.1014 -0.1386
  178EMI    C04 3365   0.163   4.029   0.261 -0.4121  0.3020  0.1166
  178EMI    C03 3366   0.141   4.151   0.310  0.6363  0.1261  1.2305
  178EMI    H07 3367   0.141   3.971   0.573 -1.1340  0.4255  0.1824
  178EMI    H09 3368   0.198   3.991   0.168  3.6159 -1.1436  1.9761
  178EMI    H08 3369   0.148   4.246   0.262  1.0527 -0.3456  0.3298
  178EMI    C05 3370   0.094   4.242   0.542  0.0600 -0.1300 -0.6528
  178EMI    H0B 3371   0.051   4.206   0.635  0.9434  1.2123  0.3244
  178EMI    H0C 3372   0.174   4.314   0.548  1.7955 -1.9284 -1.2265
  178EMI    H0D 3373   0.008   4.297   0.507 -1.3567 -2.2966 -0.7726
  178EMI    N00 3374   0.120   4.138   0.442  0.3411  0.7027  0.0540
  178EMI    C06 3375   0.175   3.797   0.350 -0.1534  0.3327 -0.6375
  178EMI    H0F 3376   0.104   3.752   0.283 -1.3973  0.1309  0.7592
  178EMI    C0N 3377   0.323   3.773   0.321  0.7863 -0.2279 -0.3797
  178EMI    H0O 3378   0.342   3.839   0.237 -0.0230  1.9253  1.0171
  178EMI    H0P 3379   0.391   3.812   0.396  0.8915  1.3648 -1.2504
  178EMI    H0Q 3380   0.354   3.671   0.301  1.9842 -0.2164  1.1805
  178EMI    N02 3381   0.147   3.942   0.366  0.3103  0.0584  0.4172
  178EMI    H0E 3382   0.140   3.758   0.444  0.5182 -1.3254 -1.0415
  179EMI    C01 3383   3.803   1.817   3.790 -0.7056  1.1416  0.0173
  179EMI    C04 3384   3.693   1.880   3.966 -0.3309  0.1318 -0.1044
  179EMI    C03 3385   3.626   1.776   3.912 -0.1172 -0.4103 -0.3471
  179EMI    H07 3386   3.883   1.791   3.725 -1.2059  0.0784 -0.1867
  179EMI    H09 3387   3.666   1.941   4.050  0.4251  3.0448 -1.8327
  179EMI    H08 3388   3.536   1.722   3.928 -1.9503  2.1675 -1.3286
  179EMI    C05 3389   3.667   1.640   3.698 -0.1778 -0.0985 -0.0517
  179EMI    H0B 3390   3.762   1.600   3.666  0.3730 -0.0486  1.4506
  179EMI    H0C 3391   3.612   1.561   3.745  0.9763 -0.2294  1.1110
  179EMI    H0D 3392   3.609   1.673   3.613 -0.6644 -0.4811  0.1320
  179EMI    N00 3393   3.697   1.747   3.797 -0.3932  0.4460 -0.0121
  179EMI    C06 3394   3.909   2.017   3.902 -0.3738 -0.1938 -0.1852
  179EMI    H0F 3395   4.000   1.970   3.936 -0.6612 -1.9437 -1.6764
  179EMI    C0N 3396   3.941   2.081   3.759  0.6384 -0.3255  0.5408
  179EMI    H0O 3397   3.992   2.176   3.769  0.4061 -0.4064  3.5581
  179EMI    H0P 3398   3.999   2.007   3.704 -0.5095 -3.3206  3.0380
  179EMI    H0Q 3399   3.849   2.094   3.703  0.4602  0.2453  0.9571
  179EMI    N02 3400   3.805   1.905   3.880 -0.2087 -0.3876 -0.4596
  179EMI    H0E 3401   3.864   2.093   3.964 -1.4254 -1.4295  0.6177
  180EMI    C01 3402   3.819   3.498   1.049  0.4541 -0.0475  0.6820
  180EMI    C04 3403   3.826   3.550   0.833  0.2634  0.4733 -0.5847
  180EMI    C03 3404   3.935   3.596   0.890 -0.0021 -0.1631  1.2150
  180EMI    H07 3405   3.796   3.462   1.147  0.8681 -0.2818  0.6967
  180EMI    H09 3406   3.792   3.554   0.732  2.5251  0.1288 -1.4370
  180EMI    H08 3407   4.011   3.648   0.836 -0.6109  0.2279  0.7168
  180EMI    C05 3408   4.013   3.628   1.127 -0.0395 -0.0813 -0.4785
  180EMI    H0B 3409   3.979   3.724   1.163 -0.8299  0.0955 -1.6299
  180EMI    H0C 3410   4.029   3.557   1.207  0.2010  0.8905  0.3524
  180EMI    H0D 3411   4.102   3.671   1.085 -0.9008  2.3607  0.0361
  180EMI    N00 3412   3.919   3.580   1.028  0.5561 -0.7024 -0.7875
  180EMI    C06 3413   3.635   3.399   0.907 -0.3055  0.0952  0.3590
  180EMI    H0F 3414   3.643   3.359   0.807 -0.2853  1.1021 -0.0489
  180EMI    C0N 3415   3.622   3.268   0.987  0.9075 -0.9401 -0.0512
  180EMI    H0O 3416   3.715   3.212   0.990  2.4406  1.4346 -0.7217
  180EMI    H0P 3417   3.590   3.292   1.087  0.5877  2.1157 -0.7887
  180EMI    H0Q 3418   3.548   3.218   0.925 -0.3994 -0.0628  0.7396
  180EMI    N02 3419   3.754   3.480   0.931  0.5170 -0.3813 -0.7639
  180EMI    H0E 3420   3.547   3.457   0.932  1.1826  1.5517  2.5885
  181EMI    C01 3421   3.840   0.543   5.060 -0.1376 -0.3648 -0.0578
  181EMI    C04 3422   3.885   0.372   4.932  0.3231 -0.0681  0.2229
  181EMI    C03 3423   3.752   0.391   4.941 -0.3163  0.1201  0.4418
  181EMI    H07 3424   3.850   0.635   5.113 -0.1697  0.5278 -1.5630
  181EMI    H09 3425   3.930   0.285   4.889 -1.0401 -2.0174  2.4446
  181EMI    H08 3426   3.669   0.337   4.901 -0.1469 -2.2876  3.0498
  181EMI    C05 3427   3.593   0.553   5.045 -0.3189  0.6553  0.1871
  181EMI    H0B 3428   3.578   0.588   5.146 -1.4050  0.3885  0.1324
  181EMI    H0C 3429   3.579   0.640   4.982  1.2324  1.3930  0.8043
  181EMI    H0D 3430   3.512   0.485   5.022  1.8537 -2.8517  2.1181
  181EMI    N00 3431   3.723   0.496   5.021 -0.3139  0.4702  0.0645
  181EMI    C06 3432   4.074   0.502   5.032 -0.1450 -0.3582 -0.1068
  181EMI    H0F 3433   4.063   0.588   5.097  1.0323  0.9131 -1.4846
  181EMI    C0N 3434   4.160   0.391   5.076  0.6918  0.7047 -0.5124
  181EMI    H0O 3435   4.130   0.334   5.163 -1.3997  0.9248 -1.0368
  181EMI    H0P 3436   4.168   0.314   5.001  0.4077 -0.5952  0.7516
  181EMI    H0Q 3437   4.260   0.422   5.103  0.9714 -0.9482  0.4511
  181EMI    N02 3438   3.937   0.471   5.006 -0.8364 -0.4012 -0.1594
  181EMI    H0E 3439   4.117   0.548   4.944  0.2076  0.1169  0.3095
  182EMI    C01 3440   3.429   4.921   3.339  0.4058 -0.6988 -0.6095
  182EMI    C04 3441   3.510   5.065   3.200  0.6846  0.0659 -0.0629
  182EMI    C03 3442   3.614   4.999   3.250  0.3149 -0.2369 -0.0129
  182EMI    H07 3443   3.369   4.860   3.404  1.6810 -0.8518  0.4729
  182EMI    H09 3444   3.504   5.132   3.118 -0.4710  1.6408  1.2292
  182EMI    H08 3445   3.720   5.001   3.234  0.2796 -0.0021 -0.2278
  182EMI    C05 3446   3.639   4.821   3.423 -0.2955  1.0269 -0.1095
  182EMI    H0B 3447   3.579   4.765   3.493 -0.7461 -2.6472 -3.1171
  182EMI    H0C 3448   3.689   4.743   3.368 -0.2693 -0.1343  1.4919
  182EMI    H0D 3449   3.703   4.882   3.486  1.5488 -0.7033 -0.1910
  182EMI    N00 3450   3.558   4.912   3.340  0.3949 -0.5710 -0.6347
  182EMI    C06 3451   3.260   5.051   3.204  0.0474  0.7526 -0.2081
  182EMI    H0F 3452   3.218   5.132   3.261  0.5884 -0.1794  1.5835
  182EMI    C0N 3453   3.248   5.065   3.052 -0.5342 -0.3261  0.0219
  182EMI    H0O 3454   3.305   4.991   2.996  3.2107  0.6532  2.1411
  182EMI    H0P 3455   3.145   5.049   3.022 -0.3453  0.5116 -1.0997
  182EMI    H0Q 3456   3.274   5.160   3.009  0.3746 -0.5115  0.1302
  182EMI    N02 3457   3.397   5.012   3.253  0.4496  0.0336  0.6789
  182EMI    H0E 3458   3.200   4.966   3.233  2.4875 -0.5162  1.4459
  183EMI    C01 3459   2.322   4.940   4.978 -0.1643  0.0496 -0.6978
  183EMI    C04 3460   2.407   4.738   4.987  0.2686  0.4768  0.3638
  183EMI    C03 3461   2.392   4.773   4.857 -0.4873 -0.2729 -0.4988
  183EMI    H07 3462   2.287   5.037   5.006 -0.7756 -0.5912  0.8559
  183EMI    H09 3463   2.446   4.647   5.028 -2.0263 -1.3220 -1.1839
  183EMI    H08 3464   2.413   4.711   4.773 -1.5600 -1.5138  0.1209
  183EMI    C05 3465   2.278   4.962   4.736 -0.2955 -0.1156  0.5018
  183EMI    H0B 3466   2.195   4.918   4.682 -0.0384 -0.3992  0.3341
  183EMI    H0C 3467   2.258   5.059   4.778  1.7318 -0.4010  2.3483
  183EMI    H0D 3468   2.365   4.971   4.672  0.3297 -0.6215  1.2575
  183EMI    N00 3469   2.323   4.890   4.853 -0.4727 -0.5538  0.7487
  183EMI    C06 3470   2.358   4.856   5.210 -0.3471 -0.3420 -0.0114
  183EMI    H0F 3471   2.450   4.809   5.240 -2.3912 -4.1691  1.0576
  183EMI    C0N 3472   2.366   4.993   5.270  0.8306  0.3684  0.2648
  183EMI    H0O 3473   2.441   5.054   5.222 -1.4349  0.8657 -2.9789
  183EMI    H0P 3474   2.266   5.036   5.262 -0.2500 -1.8657  0.8477
  183EMI    H0Q 3475   2.392   4.987   5.375 -0.7796  0.1483  0.6806
  183EMI    N02 3476   2.363   4.847   5.063  0.0291 -0.0252 -0.2122
  183EMI    H0E 3477   2.268   4.809   5.248 -1.1878  1.2145 -0.0114
  184EMI    C01 3478   0.108   0.116   2.432  0.7380  0.1585  0.1159
  184EMI    C04 3479   0.319   0.097   2.467  0.1908  0.2550 -0.3866
  184EMI    C03 3480   0.296   0.102   2.338 -0.1834 -0.1550 -0.8144
  184EMI    H07 3481   0.002   0.117   2.444  0.9168  0.9744  1.8594
  184EMI    H09 3482   0.412   0.102   2.518 -0.6320 -1.6567  1.4649
  184EMI    H08 3483   0.366   0.101   2.258  0.0951  1.4681 -0.6183
  184EMI    C05 3484   0.105   0.094   2.183  0.1952  0.9441  0.2678
  184EMI    H0B 3485   0.165   0.143   2.108  0.9679  0.8116  0.7984
  184EMI    H0C 3486   0.105  -0.009   2.151 -1.2444  1.2095 -0.7016
  184EMI    H0D 3487   0.008   0.141   2.192 -0.3418 -0.2016  0.7426
  184EMI    N00 3488   0.167   0.106   2.317  0.0225 -0.3962  0.0485
  184EMI    C06 3489   0.169   0.125   2.676  1.1763 -0.3426  0.3752
  184EMI    H0F 3490   0.258   0.168   2.720  1.7129  0.2240 -1.2058
  184EMI    C0N 3491   0.060   0.226   2.702  0.3778 -0.1975  0.4683
  184EMI    H0O 3492  -0.045   0.200   2.694  0.3562  0.1620 -0.5104
  184EMI    H0P 3493   0.059   0.260   2.805  0.4520  1.5161 -0.0694
  184EMI    H0Q 3494   0.079   0.303   2.628  2.0833 -1.7226 -0.7764
  184EMI    N02 3495   0.195   0.110   2.532 -0.9578  0.6917  0.4919
  184EMI    H0E 3496   0.141   0.034   2.728 -3.0328  1.9113  2.5177
  185EMI    C01 3497   1.877   1.348   0.677 -1.1598  0.0819 -0.2791
  185EMI    C04 3498   1.701   1.321   0.793 -0.1423  0.2393  0.1426
  185EMI    C03 3499   1.667   1.333   0.666  0.1126 -0.2395 -0.3209
  185EMI    H07 3500   1.978   1.376   0.657 -1.2648  1.2094  0.6813
  185EMI    H09 3501   1.639   1.306   0.879 -2.2718 -1.4233 -1.5930
  185EMI    H08 3502   1.567   1.338   0.630  0.1254 -1.3991 -0.5427
  185EMI    C05 3503   1.786   1.365   0.443 -0.7317  0.9653 -0.2447
  185EMI    H0B 3504   1.699   1.412   0.401 -0.8173 -0.6323 -1.9740
  185EMI    H0C 3505   1.874   1.414   0.405  1.8168 -2.1831  1.1217
  185EMI    H0D 3506   1.790   1.269   0.394 -0.0663  1.0312 -0.3267
  185EMI    N00 3507   1.780   1.351   0.590  0.2470 -0.0436  0.5052
  185EMI    C06 3508   1.915   1.303   0.923  0.1728 -0.5863 -0.0302
  185EMI    H0F 3509   1.862   1.238   0.992  0.2785 -0.1823  0.4399
  185EMI    C0N 3510   2.037   1.232   0.884 -0.3239  0.1657 -0.4432
  185EMI    H0O 3511   2.038   1.146   0.951  3.1213  2.0166  2.2536
  185EMI    H0P 3512   2.030   1.192   0.784  2.3625 -1.0345 -0.2356
  185EMI    H0Q 3513   2.136   1.272   0.905 -0.3293 -0.9512  2.0993
  185EMI    N02 3514   1.839   1.326   0.802 -0.0427 -0.2662 -0.0301
  185EMI    H0E 3515   1.930   1.386   0.990 -3.3897 -2.7275  3.9592
  186EMI    C01 3516   3.705   4.365   4.899  0.5866  0.0712  0.1776
  186EMI    C04 3517   3.619   4.440   4.711  0.1888  0.4888 -0.0619
  186EMI    C03 3518   3.714   4.349   4.680  0.9590 -0.4187 -0.6260
  186EMI    H07 3519   3.722   4.349   5.004  0.7122 -2.4698 -0.1469
  186EMI    H09 3520   3.552   4.495   4.648 -2.0939 -0.1557  1.6784
  186EMI    H08 3521   3.741   4.313   4.583 -1.2405  1.7076 -2.1425
  186EMI    C05 3522   3.868   4.198   4.822  0.6167  0.0873 -0.1114
  186EMI    H0B 3523   3.932   4.250   4.892  0.5141 -1.5446  1.2542
  186EMI    H0C 3524   3.826   4.110   4.869 -1.8199  0.5413 -1.2587
  186EMI    H0D 3525   3.919   4.176   4.730  0.1876  0.4783 -0.4561
  186EMI    N00 3526   3.757   4.298   4.800  0.1115  0.1053  0.3586
  186EMI    C06 3527   3.513   4.532   4.925  0.1568  0.2745  0.1800
  186EMI    H0F 3528   3.516   4.630   4.880 -0.9257  0.8892  1.3631
  186EMI    C0N 3529   3.369   4.467   4.936 -0.3331  0.0195 -0.0603
  186EMI    H0O 3530   3.350   4.424   4.839  1.3061  0.8754 -0.7954
  186EMI    H0P 3531   3.367   4.392   5.014  2.5135  0.6897  0.7860
  186EMI    H0Q 3532   3.296   4.545   4.957 -0.1984  0.0440  0.3339
  186EMI    N02 3533   3.616   4.445   4.850  0.2059  0.1661 -0.2094
  186EMI    H0E 3534   3.537   4.542   5.030 -0.8441 -0.9592  0.5552
  187EMI    C01 3535   2.677   3.303   0.845 -0.3150 -0.0623  0.2562
  187EMI    C04 3536   2.700   3.467   0.706  0.3328  0.4774 -0.5680
  187EMI    C03 3537   2.819   3.413   0.729  0.2035 -0.5646  0.2198
  187EMI    H07 3538   2.634   3.235   0.916  0.0969 -1.3231 -0.6697
  187EMI    H09 3539   2.683   3.550   0.640 -0.8855  0.5391 -0.1978
  187EMI    H08 3540   2.911   3.442   0.682 -0.0827 -1.7822 -1.1741
  187EMI    C05 3541   2.917   3.240   0.868 -0.2159  0.4845 -0.5740
  187EMI    H0B 3542   3.009   3.296   0.871  2.2310 -3.2257  2.0451
  187EMI    H0C 3543   2.900   3.222   0.973  0.3363  1.3843 -0.3176
  187EMI    H0D 3544   2.940   3.156   0.805 -0.4497  0.2713 -0.3771
  187EMI    N00 3545   2.804   3.315   0.818 -0.5345  0.4423 -0.7490
  187EMI    C06 3546   2.469   3.438   0.809 -0.6109 -0.1886 -0.1316
  187EMI    H0F 3547   2.431   3.377   0.889 -1.5415  2.7861  1.8502
  187EMI    C0N 3548   2.442   3.589   0.840 -0.1744 -0.3521 -0.1425
  187EMI    H0O 3549   2.449   3.623   0.942 -1.2472 -0.6467  0.0431
  187EMI    H0P 3550   2.506   3.650   0.777 -0.1371 -0.4257 -0.1772
  187EMI    H0Q 3551   2.347   3.621   0.799  0.2268 -0.6504 -1.3439
  187EMI    N02 3552   2.611   3.403   0.789 -0.0853  0.1522  0.7016
  187EMI    H0E 3553   2.424   3.402   0.717 -1.6867 -2.6669  1.2497
  188EMI    C01 3554   1.795   4.336   0.271 -0.2171 -0.4393 -0.1789
  188EMI    C04 3555   1.777   4.223   0.087  0.2496  0.2377 -0.5607
  188EMI    C03 3556   1.778   4.132   0.186  0.3876 -0.3245 -0.5299
  188EMI    H07 3557   1.808   4.419   0.337  1.5681 -1.6162  1.0201
  188EMI    H09 3558   1.776   4.212  -0.019  0.6187 -0.1315 -0.5266
  188EMI    H08 3559   1.764   4.027   0.181 -1.2823 -0.1572 -0.0143
  188EMI    C05 3560   1.777   4.153   0.442 -0.3124  0.3741  0.2810
  188EMI    H0B 3561   1.698   4.079   0.449  0.7194 -0.8177 -0.2332
  188EMI    H0C 3562   1.867   4.092   0.449 -0.7374 -0.2750  0.1751
  188EMI    H0D 3563   1.773   4.226   0.521 -1.9339 -0.5271  1.0729
  188EMI    N00 3564   1.789   4.209   0.301  0.0493  0.2161 -0.5074
  188EMI    C06 3565   1.827   4.484   0.064 -0.2831  0.7796 -0.1769
  188EMI    H0F 3566   1.935   4.488   0.060 -0.0003 -2.9354 -0.2139
  188EMI    C0N 3567   1.754   4.495  -0.069  0.1214 -0.1096 -0.8000
  188EMI    H0O 3568   1.753   4.405  -0.129 -1.2777  0.5384 -1.8139
  188EMI    H0P 3569   1.650   4.512  -0.044  0.6238 -0.6767  2.0123
  188EMI    H0Q 3570   1.790   4.580  -0.127  0.3151  1.3596  1.3363
  188EMI    N02 3571   1.811   4.347   0.141 -0.1891 -0.9176 -0.6533
  188EMI    H0E 3572   1.784   4.564   0.121  1.7306  1.6188  0.2642
  189EMI    C01 3573   1.149   0.612   2.725 -0.0447 -0.2930 -0.1504
  189EMI    C04 3574   1.148   0.404   2.740  0.3852 -0.5088  0.3598
  189EMI    C03 3575   1.272   0.447   2.779 -0.1732 -0.1389  0.3181
  189EMI    H07 3576   1.121   0.713   2.703  0.1087 -0.0806  0.6112
  189EMI    H09 3577   1.104   0.308   2.722 -0.6362 -0.0621  0.3934
  189EMI    H08 3578   1.358   0.393   2.814  0.2607 -0.6753 -1.4417
  189EMI    C05 3579   1.368   0.682   2.812 -0.2745  0.0700  0.3775
  189EMI    H0B 3580   1.317   0.769   2.854 -0.9699  0.6521 -1.5683
  189EMI    H0C 3581   1.439   0.632   2.876 -0.0643 -1.2819 -0.8649
  189EMI    H0D 3582   1.425   0.718   2.728 -1.6127  1.7473  0.1327
  189EMI    N00 3583   1.267   0.585   2.778  0.4868  0.7366  0.2353
  189EMI    C06 3584   0.923   0.500   2.706  0.4430  0.1969 -0.0550
  189EMI    H0F 3585   0.876   0.413   2.750  0.4728  0.4297  0.4432
  189EMI    C0N 3586   0.863   0.624   2.774  0.1743  0.0929 -0.3601
  189EMI    H0O 3587   0.755   0.610   2.777  0.2108 -0.5045 -1.3002
  189EMI    H0P 3588   0.894   0.632   2.878  1.1552  1.1819 -0.7239
  189EMI    H0Q 3589   0.901   0.713   2.726  0.7306 -0.3549 -0.7584
  189EMI    N02 3590   1.068   0.509   2.717  0.0403  0.1153  0.2950
  189EMI    H0E 3591   0.892   0.502   2.602  0.7340  1.9351 -0.1447
  190EMI    C01 3592   4.005   1.063   1.467  0.0809 -0.0751 -0.3218
  190EMI    C04 3593   3.978   1.262   1.398  1.2376 -0.3504  0.2701
  190EMI    C03 3594   4.097   1.260   1.467 -0.2779 -0.7926  0.1780
  190EMI    H07 3595   3.983   0.959   1.482 -4.3698  0.6436 -0.5236
  190EMI    H09 3596   3.930   1.342   1.346  2.6024  1.4988  1.6777
  190EMI    H08 3597   4.170   1.338   1.478 -0.4656 -0.6297  0.2914
  190EMI    C05 3598   4.230   1.077   1.571 -0.7657  0.1096  0.4569
  190EMI    H0B 3599   4.269   0.989   1.523 -0.8120  0.4728 -0.2601
  190EMI    H0C 3600   4.307   1.153   1.576 -0.7962  0.1222  0.7706
  190EMI    H0D 3601   4.206   1.055   1.674  1.7593 -3.7296  0.3994
  190EMI    N00 3602   4.111   1.131   1.511  0.9019 -0.0527 -0.1574
  190EMI    C06 3603   3.806   1.106   1.320  0.1523 -0.1669 -0.0413
  190EMI    H0F 3604   3.727   1.176   1.341 -0.9563 -1.7681  1.5134
  190EMI    C0N 3605   3.839   1.122   1.179 -0.1547  0.3765  0.1191
  190EMI    H0O 3606   3.752   1.105   1.117 -1.1763 -1.2335  1.8800
  190EMI    H0P 3607   3.865   1.225   1.156 -1.4574  0.5261 -0.7515
  190EMI    H0Q 3608   3.915   1.050   1.153 -0.7907 -0.3377  0.2069
  190EMI    N02 3609   3.925   1.139   1.398 -0.9133  0.0855 -0.5826
  190EMI    H0E 3610   3.777   1.002   1.334 -1.3691  0.0558 -1.1963
  191EMI    C01 3611   1.349   4.604   4.280 -0.1466  0.2279 -0.0788
  191EMI    C04 3612   1.258   4.458   4.147 -0.5226 -0.2243 -0.4198
  191EMI    C03 3613   1.377   4.490   4.094  0.1594  0.9539 -0.2144
  191EMI    H07 3614   1.366   4.679   4.354  2.0684  2.2002 -2.3702
  191EMI    H09 3615   1.182   4.400   4.100 -0.8184  0.4572 -0.7944
  191EMI    H08 3616   1.418   4.460   4.000  2.0049  2.8377 -0.1004
  191EMI    C05 3617   1.563   4.639   4.171 -0.2413  0.5662  0.3170
  191EMI    H0B 3618   1.559   4.745   4.193 -0.1481  0.5690  0.3217
  191EMI    H0C 3619   1.631   4.596   4.243  0.0754 -0.5125 -0.5949
  191EMI    H0D 3620   1.599   4.630   4.070 -0.2118 -2.8173  0.5369
  191EMI    N00 3621   1.433   4.577   4.182  0.2179  0.1138 -0.0787
  191EMI    C06 3622   1.123   4.517   4.365  0.2202  0.2949  0.4212
  191EMI    H0F 3623   1.110   4.419   4.409 -1.0911  1.0252  1.7705
  191EMI    C0N 3624   1.143   4.604   4.488 -0.1065 -0.5993 -0.5921
  191EMI    H0O 3625   1.067   4.588   4.565  1.7013 -2.8081  0.8720
  191EMI    H0P 3626   1.239   4.583   4.534  0.2042  0.8511 -0.5504
  191EMI    H0Q 3627   1.139   4.706   4.452 -0.8304 -1.2712 -2.5620
  191EMI    N02 3628   1.240   4.525   4.267 -0.1587  0.3489 -0.0930
  191EMI    H0E 3629   1.027   4.545   4.324 -0.8781 -3.6444 -0.0858
  192EMI    C01 3630   3.915   0.110   4.613  0.0422  0.3023  0.0491
  192EMI    C04 3631   3.720   0.086   4.725 -0.0629  0.7157  0.3969
  192EMI    C03 3632   3.795  -0.026   4.735  0.7094  0.4319  0.2656
  192EMI    H07 3633   3.996   0.157   4.562  1.6885 -1.4704  0.9360
  192EMI    H09 3634   3.621   0.110   4.759  0.1221 -1.3582  2.6937
  192EMI    H08 3635   3.778  -0.123   4.778 -0.5571 -0.6069 -2.3756
  192EMI    C05 3636   4.016  -0.120   4.631  0.5370  1.4591 -0.0117
  192EMI    H0B 3637   4.113  -0.077   4.646  1.2330  0.4989 -1.5298
  192EMI    H0C 3638   4.000  -0.195   4.707  1.2603  0.0746 -1.1872
  192EMI    H0D 3639   4.021  -0.162   4.532 -0.5558 -1.9733  1.2380
  192EMI    N00 3640   3.909  -0.014   4.656 -0.3777 -0.1114  0.1162
  192EMI    C06 3641   3.759   0.311   4.602  0.4999  0.2647  0.3133
  192EMI    H0F 3642   3.846   0.373   4.585 -0.2975  1.2254 -0.4145
  192EMI    C0N 3643   3.662   0.298   4.482  0.2268 -0.1249  0.5885
  192EMI    H0O 3644   3.615   0.393   4.460 -0.2237 -0.3920  0.3775
  192EMI    H0P 3645   3.717   0.263   4.396  0.2374 -0.3212  0.6738
  192EMI    H0Q 3646   3.575   0.237   4.503 -0.6757  1.0713  0.4140
  192EMI    N02 3647   3.801   0.174   4.647  0.7372  0.4032  0.0806
  192EMI    H0E 3648   3.714   0.362   4.686 -1.1982 -2.2134  1.0194
  193EMI    C01 3649   3.436   4.483   0.276  0.2622  0.3221  0.0423
  193EMI    C04 3650   3.346   4.322   0.157 -0.0229  0.4484 -0.1922
  193EMI    C03 3651   3.477   4.311   0.138 -0.7024 -0.7045  0.1171
  193EMI    H07 3652   3.444   4.572   0.334 -0.7392 -0.3633  1.2966
  193EMI    H09 3653   3.274   4.254   0.118  0.8739  0.0413 -1.1791
  193EMI    H08 3654   3.533   4.237   0.086  1.0842  0.5648  0.1129
  193EMI    C05 3655   3.678   4.441   0.241  0.2365 -0.2061 -0.3138
  193EMI    H0B 3656   3.721   4.350   0.280 -0.2039 -1.2470 -2.1216
  193EMI    H0C 3657   3.730   4.470   0.150  1.6121  0.8695  0.7645
  193EMI    H0D 3658   3.699   4.532   0.296  0.0270  0.5064 -1.3851
  193EMI    N00 3659   3.535   4.413   0.221 -0.6999 -0.1425 -0.0459
  193EMI    C06 3660   3.180   4.470   0.281 -0.2119  0.1482 -0.2143
  193EMI    H0F 3661   3.138   4.528   0.200  1.5735  0.3191 -1.0462
  193EMI    C0N 3662   3.082   4.361   0.317  0.1824 -0.1497 -0.0608
  193EMI    H0O 3663   3.072   4.295   0.232 -0.5269 -0.1565  0.0196
  193EMI    H0P 3664   3.110   4.294   0.398 -1.6103  0.4203  1.1083
  193EMI    H0Q 3665   2.987   4.399   0.355  0.6281  0.9383 -0.0057
  193EMI    N02 3666   3.318   4.431   0.238  0.5070  0.0867 -0.6218
  193EMI    H0E 3667   3.197   4.530   0.370  1.2353 -3.2700  1.9911
  194EMI    C01 3668   4.800   2.521   3.593 -0.8658  0.0003  0.1296
  194EMI    C04 3669   4.840   2.411   3.769 -0.0479  0.3667 -0.4185
  194EMI    C03 3670   4.954   2.466   3.733 -0.0269 -0.7718  0.4258
  194EMI    H07 3671   4.747   2.576   3.518 -0.2711  0.8912  0.3442
  194EMI    H09 3672   4.811   2.354   3.855 -0.1379  2.8677  1.2964
  194EMI    H08 3673   5.048   2.474   3.782 -0.0264  1.7946  0.1167
  194EMI    C05 3674   5.015   2.612   3.529 -0.7348  0.7767  0.2232
  194EMI    H0B 3675   4.972   2.711   3.521  0.4265  1.1470 -2.8107
  194EMI    H0C 3676   5.106   2.627   3.584  0.3349 -0.7852 -1.0217
  194EMI    H0D 3677   5.038   2.563   3.435 -0.6072 -1.1208  1.1994
  194EMI    N00 3678   4.929   2.528   3.614 -0.1411 -0.1913 -0.2191
  194EMI    C06 3679   4.602   2.402   3.675 -0.1806 -0.4225 -0.5817
  194EMI    H0F 3680   4.577   2.336   3.757 -1.1881 -0.3617 -0.8234
  194EMI    C0N 3681   4.500   2.513   3.688 -0.7767 -0.0261  0.6383
  194EMI    H0O 3682   4.492   2.558   3.786 -0.1877  0.0558  0.6475
  194EMI    H0P 3683   4.521   2.591   3.615 -0.7074 -0.7984 -0.1872
  194EMI    H0Q 3684   4.398   2.478   3.671 -0.1400 -0.2619 -4.0292
  194EMI    N02 3685   4.744   2.441   3.678 -0.8385  0.2582  0.2376
  194EMI    H0E 3686   4.588   2.343   3.585  1.5249 -0.2657 -0.9793
  195EMI    C01 3687   1.472   3.641   1.737  0.2328 -0.1873 -0.4822
  195EMI    C04 3688   1.618   3.772   1.837  0.9460  0.3250 -1.0689
  195EMI    C03 3689   1.513   3.756   1.920  0.7395 -0.8164 -0.4069
  195EMI    H07 3690   1.425   3.568   1.675 -0.7662 -0.3615  0.4431
  195EMI    H09 3691   1.698   3.840   1.859  0.7891 -0.6565  3.8704
  195EMI    H08 3692   1.495   3.792   2.019 -3.0362 -0.2243 -1.1719
  195EMI    C05 3693   1.303   3.616   1.917  0.1275 -0.0035 -0.5485
  195EMI    H0B 3694   1.214   3.619   1.856 -1.6924 -1.7987  1.7929
  195EMI    H0C 3695   1.321   3.516   1.955  2.0599  0.1352 -0.9794
  195EMI    H0D 3696   1.287   3.682   2.001 -0.3626  0.2314 -0.8263
  195EMI    N00 3697   1.421   3.670   1.857 -0.3122  0.5831  0.0397
  195EMI    C06 3698   1.682   3.674   1.611  0.6051 -0.4907 -0.4996
  195EMI    H0F 3699   1.732   3.579   1.622  0.1846 -0.8649 -1.7174
  195EMI    C0N 3700   1.606   3.680   1.477 -0.3727 -0.4267 -0.0632
  195EMI    H0O 3701   1.674   3.695   1.394 -0.5740 -0.0824 -0.1668
  195EMI    H0P 3702   1.553   3.586   1.468 -1.8280  0.4816 -1.3228
  195EMI    H0Q 3703   1.545   3.769   1.479 -0.1619  0.1477 -5.4356
  195EMI    N02 3704   1.591   3.700   1.726  0.6778  0.7105 -0.2542
  195EMI    H0E 3705   1.750   3.757   1.614 -0.4190  0.3712 -0.4332
  196EMI    C01 3706   4.893   2.098   4.998  0.0622 -0.0430  0.1304
  196EMI    C04 3707   5.069   2.105   5.120  0.7046 -0.1962 -0.6677
  196EMI    C03 3708   5.021   1.983   5.118 -0.2852  0.2134 -0.0541
  196EMI    H07 3709   4.811   2.128   4.937 -0.6106  1.0879  1.5448
  196EMI    H09 3710   5.156   2.143   5.170 -0.3185  1.0966  0.2138
  196EMI    H08 3711   5.056   1.889   5.155  0.9217  0.0479 -1.5118
  196EMI    C05 3712   4.820   1.863   5.008 -0.2632 -0.2947 -0.1946
  196EMI    H0B 3713   4.891   1.786   4.982  0.2337  0.4419 -1.0903
  196EMI    H0C 3714   4.770   1.833   5.098  1.0929  1.1415  1.1050
  196EMI    H0D 3715   4.760   1.887   4.921  0.5979  1.4515 -0.3531
  196EMI    N00 3716   4.904   1.981   5.051  0.0009  0.1406 -0.0219
  196EMI    C06 3717   5.018   2.323   4.995 -0.3309  0.5713 -0.2285
  196EMI    H0F 3718   4.918   2.363   5.004 -0.6835 -0.6465  2.4264
  196EMI    C0N 3719   5.105   2.392   5.094  0.7116 -0.2676 -0.3972
  196EMI    H0O 3720   5.054   2.407   5.188  0.7337  2.9944 -0.7977
  196EMI    H0P 3721   5.201   2.342   5.097  2.7781  3.2904 -1.3897
  196EMI    H0Q 3722   5.128   2.489   5.051  0.8563  0.0263  0.3403
  196EMI    N02 3723   4.993   2.177   5.035  0.2335 -0.5855  0.3766
  196EMI    H0E 3724   5.066   2.315   4.899 -1.3398  0.5705 -0.7482
  197EMI    C01 3725   4.869   2.805   0.779 -1.1698 -0.6569  0.6677
  197EMI    C04 3726   4.965   2.650   0.889  0.1150  0.9213  0.2148
  197EMI    C03 3727   5.050   2.750   0.874  0.8483 -0.6550 -0.5713
  197EMI    H07 3728   4.794   2.844   0.714  0.4706  0.3101 -0.7047
  197EMI    H09 3729   4.968   2.552   0.931 -1.4234  0.0761 -1.4821
  197EMI    H08 3730   5.152   2.757   0.907  0.4782  0.9126  0.3484
  197EMI    C05 3731   5.060   2.953   0.715 -0.0658  0.2337  0.0914
  197EMI    H0B 3732   4.991   3.030   0.687 -1.7318 -1.1428  0.2567
  197EMI    H0C 3733   5.140   2.992   0.777 -0.3342  0.3924  0.3383
  197EMI    H0D 3734   5.115   2.922   0.627 -2.7160  0.7738 -1.8791
  197EMI    N00 3735   4.992   2.844   0.793  0.0746 -0.4232  0.2914
  197EMI    C06 3736   4.731   2.598   0.815  0.4200  0.5075  0.3919
  197EMI    H0F 3737   4.678   2.627   0.726  0.3323 -2.5221 -0.6490
  197EMI    C0N 3738   4.774   2.456   0.786 -0.1374 -0.5746 -0.0189
  197EMI    H0O 3739   4.698   2.410   0.725 -0.7468  1.3908 -0.8236
  197EMI    H0P 3740   4.872   2.463   0.740 -1.6138 -1.4220 -3.5372
  197EMI    H0Q 3741   4.791   2.398   0.876 -0.5770 -0.1440  0.3468
  197EMI    N02 3742   4.849   2.686   0.830 -0.6487 -0.1703 -0.9503
  197EMI    H0E 3743   4.664   2.600   0.900  0.3287 -0.5439  0.3520
  198EMI    C01 3744   3.825   0.716   0.714  0.5245 -0.0454  0.4801
  198EMI    C04 3745   3.783   0.499   0.715 -0.7640  0.0777  0.2172
  198EMI    C03 3746   3.807   0.545   0.837 -0.7729 -0.6825 -0.7770
  198EMI    H07 3747   3.838   0.813   0.672 -2.6638 -0.3191 -1.4416
  198EMI    H09 3748   3.757   0.399   0.685  0.3617 -0.2163  0.1502
  198EMI    H08 3749   3.795   0.496   0.931 -1.7012  1.5422  0.3227
  198EMI    C05 3750   3.826   0.775   0.942 -0.2463  0.2820 -0.1452
  198EMI    H0B 3751   3.808   0.718   1.032 -2.2790 -0.0153 -0.6968
  198EMI    H0C 3752   3.918   0.831   0.943  0.6929 -1.2130  1.4433
  198EMI    H0D 3753   3.743   0.843   0.931 -1.6683 -0.9719  2.1729
  198EMI    N00 3754   3.830   0.682   0.835 -0.0890  0.2292  0.8977
  198EMI    C06 3755   3.795   0.623   0.487 -0.4217  1.0028  0.5843
  198EMI    H0F 3756   3.694   0.606   0.453  0.1367  1.9636 -1.7454
  198EMI    C0N 3757   3.838   0.752   0.427 -0.3683 -0.0704 -0.3327
  198EMI    H0O 3758   3.933   0.783   0.469  0.0769 -0.1557 -1.2558
  198EMI    H0P 3759   3.851   0.744   0.320 -0.1669  1.1568 -0.4227
  198EMI    H0Q 3760   3.765   0.825   0.464  0.8996  1.5295 -0.8711
  198EMI    N02 3761   3.805   0.616   0.635 -0.6629  1.2542 -0.0938
  198EMI    H0E 3762   3.859   0.551   0.438  1.2893  3.3772 -0.8799
  199EMI    C01 3763   4.370   0.344   2.138 -0.2547  0.3762 -0.2524
  199EMI    C04 3764   4.248   0.374   2.321  0.2429  0.3389  0.0098
  199EMI    C03 3765   4.364   0.434   2.340  0.2084 -0.5898  0.5668
  199EMI    H07 3766   4.398   0.307   2.042 -1.8922  2.1919 -1.5133
  199EMI    H09 3767   4.171   0.356   2.393  0.1430 -2.6395 -0.7088
  199EMI    H08 3768   4.398   0.472   2.433 -1.2353  1.0193  0.4839
  199EMI    C05 3769   4.592   0.453   2.217  0.3751 -0.0925 -0.0801
  199EMI    H0B 3770   4.609   0.541   2.276  0.6952  0.7385 -1.3586
  199EMI    H0C 3771   4.646   0.369   2.258  1.2199  0.4380 -0.0692
  199EMI    H0D 3772   4.621   0.474   2.115  0.5344  0.0073 -0.0144
  199EMI    N00 3773   4.444   0.410   2.229  0.1665  0.1423  0.1185
  199EMI    C06 3774   4.151   0.230   2.128 -0.6162 -0.0752 -0.2022
  199EMI    H0F 3775   4.115   0.182   2.218  0.2111 -0.8609 -0.2765
  199EMI    C0N 3776   4.043   0.316   2.054 -0.2021 -0.3770  0.2323
  199EMI    H0O 3777   3.994   0.377   2.129  1.4551 -1.5591  2.4131
  199EMI    H0P 3778   4.075   0.378   1.971  3.6225 -0.9504  1.1020
  199EMI    H0Q 3779   3.971   0.243   2.019  1.2498 -1.3210 -0.9077
  199EMI    N02 3780   4.252   0.321   2.194  0.0267  1.1336 -0.2571
  199EMI    H0E 3781   4.209   0.157   2.073  2.7719 -0.1146  3.0866
  200EMI    C01 3782   3.165   4.418   3.160  0.1347 -0.1958 -0.1430
  200EMI    C04 3783   2.947   4.462   3.182 -0.2419 -0.2446 -0.7572
  200EMI    C03 3784   2.972   4.343   3.238 -0.0105  0.7393 -0.0583
  200EMI    H07 3785   3.269   4.428   3.136  0.5659  0.2962  1.7818
  200EMI    H09 3786   2.855   4.516   3.186 -0.0801 -0.0442  1.5185
  200EMI    H08 3787   2.909   4.275   3.290  2.2494 -1.8532 -0.5143
  200EMI    C05 3788   3.175   4.204   3.288 -0.1875  0.0824  0.3701
  200EMI    H0B 3789   3.107   4.120   3.286 -1.2595  0.8317  2.4419
  200EMI    H0C 3790   3.271   4.190   3.241 -1.0343  0.9434 -1.7082
  200EMI    H0D 3791   3.188   4.222   3.394  0.4852 -0.6287  0.4189
  200EMI    N00 3792   3.107   4.321   3.231  0.2859  0.2561  1.2194
  200EMI    C06 3793   3.082   4.640   3.062 -0.5322  0.6904  0.8771
  200EMI    H0F 3794   3.047   4.727   3.114  0.0184  2.1163 -1.0163
  200EMI    C0N 3795   3.225   4.679   3.018 -0.4824 -0.1526 -0.9730
  200EMI    H0O 3796   3.275   4.590   2.982 -1.1403 -0.6622 -0.6433
  200EMI    H0P 3797   3.226   4.761   2.947 -0.6129  2.0910  1.4794
  200EMI    H0Q 3798   3.278   4.726   3.100  0.1090  2.8286 -2.8874
  200EMI    N02 3799   3.073   4.508   3.133 -0.0574  0.0276  0.0090
  200EMI    H0E 3800   3.023   4.617   2.974 -0.0759  0.8454  0.5211
  201EMI    C01 3801   2.459   2.773   0.444  0.4630  0.9333  0.1128
  201EMI    C04 3802   2.364   2.773   0.247 -0.4809  0.0145 -0.6320
  201EMI    C03 3803   2.283   2.712   0.333  0.0165 -0.1477 -0.2335
  201EMI    H07 3804   2.525   2.783   0.527  0.5808 -0.2583  0.1913
  201EMI    H09 3805   2.346   2.808   0.148  1.4451  0.7947 -0.7483
  201EMI    H08 3806   2.186   2.671   0.318  0.2816 -1.5903  1.5872
  201EMI    C05 3807   2.304   2.644   0.577  0.6165  0.0605 -0.1214
  201EMI    H0B 3808   2.318   2.720   0.652  0.5130 -0.3694  0.3345
  201EMI    H0C 3809   2.201   2.628   0.550  0.6593  1.6353 -1.3485
  201EMI    H0D 3810   2.366   2.563   0.611  1.2715  1.1436  1.3481
  201EMI    N00 3811   2.350   2.696   0.450  0.2886 -0.4585 -0.2296
  201EMI    C06 3812   2.572   2.910   0.273  0.2178 -0.8906  0.2407
  201EMI    H0F 3813   2.521   3.004   0.290 -0.8603 -1.7262  1.8275
  201EMI    C0N 3814   2.715   2.892   0.321  0.0329 -0.0749 -0.3450
  201EMI    H0O 3815   2.737   2.787   0.336 -0.2006  0.1253  1.5734
  201EMI    H0P 3816   2.780   2.936   0.246  0.6907  0.6599  0.6337
  201EMI    H0Q 3817   2.739   2.941   0.414 -0.8998  2.0027 -1.1355
  201EMI    N02 3818   2.468   2.821   0.323 -0.4192 -0.4372 -0.1922
  201EMI    H0E 3819   2.578   2.903   0.165  2.5480  0.8007  0.1725
  202EMI    C01 3820   4.175   1.456   4.914  0.0222 -0.2913 -0.2266
  202EMI    C04 3821   4.239   1.315   5.071 -0.2259  0.3220  0.6663
  202EMI    C03 3822   4.332   1.408   5.061  0.0670  0.3804 -0.4295
  202EMI    H07 3823   4.121   1.487   4.827  1.1259  1.4799 -0.3324
  202EMI    H09 3824   4.232   1.226   5.131  0.3227  0.1865  0.5310
  202EMI    H08 3825   4.421   1.411   5.121 -0.1668 -1.1034  0.0314
  202EMI    C05 3826   4.385   1.593   4.896 -0.3517  0.0001  0.6626
  202EMI    H0B 3827   4.458   1.530   4.847 -0.3698 -0.0331  0.6789
  202EMI    H0C 3828   4.345   1.655   4.816  2.4553  0.9974 -0.0846
  202EMI    H0D 3829   4.439   1.652   4.968  1.3831  0.1454 -0.6896
  202EMI    N00 3830   4.291   1.501   4.967 -0.2338 -0.8650 -0.0753
  202EMI    C06 3831   4.004   1.290   4.978  0.5249 -0.0600 -0.0213
  202EMI    H0F 3832   4.029   1.185   4.976  1.2706  0.1190 -0.9118
  202EMI    C0N 3833   3.899   1.332   5.081 -0.2534 -0.2805  0.4702
  202EMI    H0O 3834   3.944   1.343   5.180  0.0482  1.7896  0.1578
  202EMI    H0P 3835   3.859   1.428   5.052 -0.8712 -0.3919  0.9330
  202EMI    H0Q 3836   3.822   1.258   5.097 -0.8161  0.3382  0.6570
  202EMI    N02 3837   4.136   1.353   4.987  0.5164  0.2263  0.1805
  202EMI    H0E 3838   3.961   1.309   4.880 -1.4700 -0.3958  0.7269
  203EMI    C01 3839   1.738   0.041   4.561 -0.2102 -0.1642 -0.6171
  203EMI    C04 3840   1.710  -0.168   4.527  0.2530  0.5647  0.9023
  203EMI    C03 3841   1.699  -0.105   4.406 -0.0065  0.0897  0.3468
  203EMI    H07 3842   1.761   0.133   4.609 -0.1129 -0.7211  0.4262
  203EMI    H09 3843   1.702  -0.270   4.555 -0.5443  1.0211  2.4138
  203EMI    H08 3844   1.679  -0.144   4.309 -0.4816  0.6735  0.2067
  203EMI    C05 3845   1.700   0.127   4.322 -0.3941 -0.4096  0.3164
  203EMI    H0B 3846   1.786   0.116   4.257  0.2074 -0.0861  1.0405
  203EMI    H0C 3847   1.614   0.101   4.263  0.0797 -1.6822  0.1583
  203EMI    H0D 3848   1.690   0.223   4.371 -1.3533 -0.6707  0.6493
  203EMI    N00 3849   1.711   0.030   4.430  0.7915  0.7007 -0.2426
  203EMI    C06 3850   1.788  -0.109   4.750 -0.2551 -0.1582 -0.6491
  203EMI    H0F 3851   1.703  -0.113   4.817  0.5926  0.9515  0.5546
  203EMI    C0N 3852   1.890  -0.233   4.765  0.4621 -0.7216  0.5427
  203EMI    H0O 3853   1.832  -0.324   4.752 -2.2400  0.8486  0.7916
  203EMI    H0P 3854   1.957  -0.214   4.682 -0.5278  1.6712  0.1957
  203EMI    H0Q 3855   1.940  -0.228   4.861  0.7916 -3.1698  0.5656
  203EMI    N02 3856   1.745  -0.073   4.619  0.5247  0.1555 -0.0189
  203EMI    H0E 3857   1.848  -0.028   4.788  2.0565 -0.5412 -3.2124
  204EMI    C01 3858   4.700   0.825   3.735 -0.1522 -0.3393 -0.4338
  204EMI    C04 3859   4.854   0.958   3.810  0.1888 -0.1802 -0.1510
  204EMI    C03 3860   4.899   0.895   3.702 -0.1088  0.1112 -0.0880
  204EMI    H07 3861   4.596   0.808   3.716 -0.7630  1.1011  1.2964
  204EMI    H09 3862   4.905   1.029   3.871  0.9724 -1.0932  0.2706
  204EMI    H08 3863   4.996   0.910   3.661 -0.0750  3.3157  0.9154
  204EMI    C05 3864   4.803   0.727   3.531  0.0579  0.1120 -0.2209
  204EMI    H0B 3865   4.907   0.700   3.517  0.2788  0.2390  1.0495
  204EMI    H0C 3866   4.756   0.630   3.539  0.8890 -0.3900 -1.1504
  204EMI    H0D 3867   4.766   0.784   3.447 -0.9997 -1.4787 -0.8849
  204EMI    N00 3868   4.800   0.811   3.651  0.4970  0.3159 -0.6101
  204EMI    C06 3869   4.655   0.938   3.957  1.1473 -0.6684  0.0259
  204EMI    H0F 3870   4.714   0.975   4.040  0.9314 -0.6574  0.1736
  204EMI    C0N 3871   4.549   1.042   3.916 -0.3088  0.0920  0.1194
  204EMI    H0O 3872   4.473   1.000   3.852 -0.8019  2.2286 -0.7668
  204EMI    H0P 3873   4.501   1.084   4.004 -1.9211  0.0600 -0.7168
  204EMI    H0Q 3874   4.583   1.125   3.855 -1.1777  0.1024 -0.3598
  204EMI    N02 3875   4.733   0.905   3.832 -0.5647  0.0183 -0.0463
  204EMI    H0E 3876   4.604   0.848   3.989 -0.2442  0.1543  0.1762
  205EMI    C01 3877   2.972   0.912   0.751 -0.2580 -0.7156  0.6240
  205EMI    C04 3878   3.165   0.817   0.701  0.4666  0.2447  0.0709
  205EMI    C03 3879   3.085   0.725   0.761  0.7007 -0.1440 -0.1302
  205EMI    H07 3880   2.897   0.988   0.761 -0.4145 -0.7287 -0.3217
  205EMI    H09 3881   3.267   0.820   0.669  0.7253  1.5634  0.9324
  205EMI    H08 3882   3.098   0.626   0.797  1.5395 -0.0348 -0.1125
  205EMI    C05 3883   2.844   0.727   0.853  0.6271  0.0461 -0.2456
  205EMI    H0B 3884   2.865   0.705   0.957 -1.0734 -0.2488  0.0634
  205EMI    H0C 3885   2.751   0.780   0.838  0.3785 -1.0326 -3.2209
  205EMI    H0D 3886   2.818   0.638   0.798 -2.1616  0.2983  0.5420
  205EMI    N00 3887   2.959   0.788   0.787 -0.0292  0.5021 -0.2360
  205EMI    C06 3888   3.141   1.064   0.643 -0.6081 -0.9297 -0.4598
  205EMI    H0F 3889   3.094   1.138   0.707  2.1108 -2.4539  3.7305
  205EMI    C0N 3890   3.290   1.094   0.679 -0.6389  0.2764 -0.5918
  205EMI    H0O 3891   3.362   1.030   0.629 -0.3337  0.7990 -0.8285
  205EMI    H0P 3892   3.309   1.198   0.655  2.0722  0.1673  0.7238
  205EMI    H0Q 3893   3.318   1.078   0.782  0.1495  1.3383 -0.6337
  205EMI    N02 3894   3.093   0.936   0.699  0.6199 -0.9032 -0.1551
  205EMI    H0E 3895   3.114   1.077   0.539 -1.2195  1.0390 -0.0876
  206EMI    C01 3896   3.793   4.491   1.465 -0.1260 -0.4600 -0.0784
  206EMI    C04 3897   3.902   4.346   1.340 -1.0204 -0.2784  0.1702
  206EMI    C03 3898   3.789   4.381   1.279  0.7076 -0.1261  0.0984
  206EMI    H07 3899   3.752   4.545   1.547  0.0935 -1.6778  0.8666
  206EMI    H09 3900   3.983   4.282   1.311 -1.1004 -0.0503 -0.5864
  206EMI    H08 3901   3.759   4.346   1.183  1.0057 -0.7323  0.2228
  206EMI    C05 3902   3.602   4.551   1.321 -0.3162  0.2991 -0.4688
  206EMI    H0B 3903   3.549   4.594   1.405 -0.7942 -0.5294 -0.3329
  206EMI    H0C 3904   3.634   4.639   1.267 -0.0707 -0.5498 -1.7635
  206EMI    H0D 3905   3.528   4.498   1.261  1.4794  1.5950 -4.1715
  206EMI    N00 3906   3.727   4.483   1.352 -0.2743 -0.0376 -0.3667
  206EMI    C06 3907   3.989   4.390   1.565 -0.3526  0.4050  0.2839
  206EMI    H0F 3908   4.024   4.479   1.613 -0.0739 -1.7413  4.4843
  206EMI    C0N 3909   3.935   4.289   1.660  0.0532 -0.4138  0.5813
  206EMI    H0O 3910   4.006   4.269   1.739 -0.0978 -2.5279  0.2294
  206EMI    H0P 3911   3.852   4.337   1.711  0.6497 -1.5072  2.6877
  206EMI    H0Q 3912   3.901   4.202   1.605 -1.0683  0.2265  0.2116
  206EMI    N02 3913   3.904   4.413   1.455  0.3434 -0.2180  0.0519
  206EMI    H0E 3914   4.081   4.340   1.537 -0.2978 -0.0450  1.2279
  207EMI    C01 3915   4.912   2.650   4.390  0.8177  0.5522  0.3135
  207EMI    C04 3916   4.810   2.709   4.210 -0.4108  0.0629  0.8662
  207EMI    C03 3917   4.740   2.751   4.315 -0.3168 -0.0717  0.2791
  207EMI    H07 3918   4.975   2.583   4.444  0.6864 -1.0677 -1.4175
  207EMI    H09 3919   4.793   2.730   4.107 -0.4070 -0.9511  0.6485
  207EMI    H08 3920   4.657   2.818   4.305 -0.9025 -0.4519  2.1705
  207EMI    C05 3921   4.748   2.702   4.562  0.0877  0.2771 -0.7522
  207EMI    H0B 3922   4.641   2.706   4.550 -0.1693  1.2194  1.3111
  207EMI    H0C 3923   4.771   2.611   4.617  0.5799  1.5192  1.1931
  207EMI    H0D 3924   4.777   2.786   4.624 -1.9319 -0.7031  1.7204
  207EMI    N00 3925   4.805   2.709   4.431 -0.0134 -0.0659 -0.0222
  207EMI    C06 3926   4.999   2.555   4.183  0.0642 -0.6735 -0.2507
  207EMI    H0F 3927   5.094   2.558   4.235 -1.2093  1.3741  2.1700
  207EMI    C0N 3928   4.940   2.414   4.154  0.3904  0.1711  0.5005
  207EMI    H0O 3929   4.982   2.342   4.224  0.4271 -0.9625 -0.6525
  207EMI    H0P 3930   4.832   2.416   4.171  0.5466 -1.7737  2.1482
  207EMI    H0Q 3931   4.959   2.381   4.053  0.5371  2.2704 -0.1904
  207EMI    N02 3932   4.916   2.642   4.257  0.2384  0.0426 -0.6503
  207EMI    H0E 3933   5.007   2.606   4.087 -1.4756  0.8412  0.3792
  208EMI    C01 3934   3.595   1.280   3.667 -0.9425  0.5093  0.8577
  208EMI    C04 3935   3.481   1.212   3.838  0.5033  0.0387 -0.2711
  208EMI    C03 3936   3.413   1.176   3.724  0.8051 -0.4995  0.4995
  208EMI    H07 3937   3.663   1.323   3.596 -1.4757 -0.4983 -0.3080
  208EMI    H09 3938   3.442   1.214   3.938  1.4825  0.8433  0.1126
  208EMI    H08 3939   3.310   1.148   3.716  0.4341  1.1954 -1.3202
  208EMI    C05 3940   3.446   1.207   3.483  0.7443  0.1191  0.1921
  208EMI    H0B 3941   3.407   1.106   3.479 -0.3611  0.5239  0.4130
  208EMI    H0C 3942   3.383   1.291   3.458 -0.0535 -0.2854  0.7972
  208EMI    H0D 3943   3.534   1.207   3.420  0.5980 -2.0511 -0.0970
  208EMI    N00 3944   3.490   1.214   3.617 -0.0793 -0.3300  0.6297
  208EMI    C06 3945   3.696   1.321   3.896  0.1691 -0.1753  0.5855
  208EMI    H0F 3946   3.767   1.381   3.841  0.9407 -1.3058  0.3143
  208EMI    C0N 3947   3.641   1.429   3.995  0.3160 -0.0888 -0.1624
  208EMI    H0O 3948   3.605   1.385   4.087  0.4707  1.8000  0.8496
  208EMI    H0P 3949   3.716   1.507   4.003  1.0180 -0.5369 -1.9060
  208EMI    H0Q 3950   3.555   1.478   3.951  0.2796  2.4682  2.4397
  208EMI    N02 3951   3.602   1.263   3.795 -0.2214 -0.4828 -0.2891
  208EMI    H0E 3952   3.757   1.254   3.955  0.5968 -0.7778 -0.5198
  209EMI    C01 3953   4.197   2.015   2.707 -0.5869  0.5033 -0.4400
  209EMI    C04 3954   4.187   1.882   2.536  1.1886 -0.6704  0.0971
  209EMI    C03 3955   4.121   1.996   2.508 -0.0284  0.6715  0.2539
  209EMI    H07 3956   4.201   2.049   2.808 -2.0147 -0.1880 -0.1230
  209EMI    H09 3957   4.204   1.799   2.471  0.9742 -0.5529 -0.1106
  209EMI    H08 3958   4.068   2.024   2.420  0.0173  2.3271  0.7118
  209EMI    C05 3959   4.074   2.208   2.633  0.1693  0.0407 -0.6011
  209EMI    H0B 3960   4.137   2.282   2.585  1.3720  0.1466  1.0456
  209EMI    H0C 3961   3.972   2.211   2.599 -0.0336  0.6011  0.0168
  209EMI    H0D 3962   4.082   2.234   2.738 -0.2756 -2.3042  0.0752
  209EMI    N00 3963   4.133   2.082   2.615  0.4373  1.0622 -0.3076
  209EMI    C06 3964   4.318   1.793   2.724  0.5630 -0.7368 -0.4072
  209EMI    H0F 3965   4.260   1.708   2.758 -0.0396  0.3772  1.4892
  209EMI    C0N 3966   4.445   1.762   2.645 -0.1409  0.3157 -0.1884
  209EMI    H0O 3967   4.512   1.691   2.692 -0.4168  0.4688  0.4385
  209EMI    H0P 3968   4.414   1.719   2.550  0.1550  0.9570 -0.5842
  209EMI    H0Q 3969   4.495   1.856   2.625 -0.1990  0.7382  1.5124
  209EMI    N02 3970   4.236   1.895   2.656  0.1302 -0.1953 -0.2738
  209EMI    H0E 3971   4.331   1.827   2.825 -2.1783  0.8593 -0.4812
  210EMI    C01 3972   3.250   3.924   0.609 -0.3488  0.1499 -0.3906
  210EMI    C04 3973   3.265   3.954   0.824 -0.4835 -0.3898  0.0269
  210EMI    C03 3974   3.336   3.844   0.797 -0.4380 -0.1707  0.0175
  210EMI    H07 3975   3.222   3.942   0.507 -1.4341 -0.1233 -0.1526
  210EMI    H09 3976   3.246   3.991   0.922  0.5063  0.7244 -0.1713
  210EMI    H08 3977   3.386   3.779   0.866  0.7108  0.1252 -0.5201
  210EMI    C05 3978   3.409   3.731   0.580 -1.0030  0.6787 -0.1356
  210EMI    H0B 3979   3.364   3.635   0.604  1.7084 -1.5104 -2.9170
  210EMI    H0C 3980   3.395   3.751   0.475 -0.6389  0.0098 -0.3170
  210EMI    H0D 3981   3.514   3.741   0.604 -0.9823 -1.0101  0.6301
  210EMI    N00 3982   3.326   3.828   0.660 -0.2904  0.0585 -0.1008
  210EMI    C06 3983   3.150   4.136   0.678  0.5640 -0.4151  0.4237
  210EMI    H0F 3984   3.165   4.167   0.575 -0.9677 -1.7559 -0.2471
  210EMI    C0N 3985   3.003   4.134   0.706 -0.2094  0.2381 -0.3834
  210EMI    H0O 3986   2.972   4.225   0.657  1.4898  0.9502 -0.1950
  210EMI    H0P 3987   2.955   4.045   0.666  2.1775 -0.9218 -0.8308
  210EMI    H0Q 3988   2.982   4.144   0.812 -2.0975  0.9569 -0.7688
  210EMI    N02 3989   3.220   4.007   0.705  0.0957 -0.4633 -0.2702
  210EMI    H0E 3990   3.203   4.215   0.729 -0.8563  0.7057  0.2207
  211EMI    C01 3991   2.171   2.518   3.548  0.2104 -0.0748  0.4753
  211EMI    C04 3992   2.226   2.675   3.686 -0.0204  0.3619  0.3312
  211EMI    C03 3993   2.248   2.553   3.746  0.2092  0.0223 -0.5414
  211EMI    H07 3994   2.152   2.465   3.457 -0.7249  0.8375  0.1120
  211EMI    H09 3995   2.241   2.776   3.716  0.8765 -0.1894  1.8291
  211EMI    H08 3996   2.265   2.529   3.849 -1.1793 -1.6517 -0.6386
  211EMI    C05 3997   2.214   2.313   3.655 -0.5235 -0.1273 -0.0135
  211EMI    H0B 3998   2.210   2.266   3.752  1.9377 -1.4334 -0.4632
  211EMI    H0C 3999   2.143   2.270   3.585  0.0893 -1.8641  0.3783
  211EMI    H0D 4000   2.310   2.290   3.610 -0.0280 -0.7544  1.3023
  211EMI    N00 4001   2.201   2.460   3.657  0.3203  0.3393 -0.2484
  211EMI    C06 4002   2.164   2.751   3.459 -0.2598  0.5330 -0.0827
  211EMI    H0F 4003   2.158   2.706   3.361 -3.0161 -0.9266  0.6475
  211EMI    C0N 4004   2.035   2.831   3.473  0.1220 -0.6623 -0.2116
  211EMI    H0O 4005   2.027   2.904   3.393 -0.4068 -1.6189 -1.0651
  211EMI    H0P 4006   1.949   2.768   3.453 -1.0497  1.5253 -2.6976
  211EMI    H0Q 4007   2.020   2.888   3.564  1.7945  0.6587 -0.7059
  211EMI    N02 4008   2.180   2.645   3.564 -0.7037 -0.8472  0.5631
  211EMI    H0E 4009   2.255   2.809   3.461 -1.1373  1.9242  0.9689
  212EMI    C01 4010   1.003   0.467   5.014 -0.0514 -0.1952 -0.6419
  212EMI    C04 4011   0.937   0.476   5.222  0.3546  0.1537 -0.1235
  212EMI    C03 4012   1.070   0.470   5.218 -0.0469  0.2613 -0.0665
  212EMI    H07 4013   1.006   0.462   4.907  2.4995  1.4917 -0.7478
  212EMI    H09 4014   0.871   0.484   5.306 -0.2144 -3.8827  0.0141
  212EMI    H08 4015   1.141   0.462   5.298 -0.5916  1.1631  0.5306
  212EMI    C05 4016   1.253   0.461   5.029  0.4830 -0.3145  0.1910
  212EMI    H0B 4017   1.292   0.361   5.016  0.2650 -0.3810  0.0346
  212EMI    H0C 4018   1.239   0.501   4.929 -2.0437  1.1819  1.0313
  212EMI    H0D 4019   1.314   0.528   5.086 -0.1091  2.5200 -2.2769
  212EMI    N00 4020   1.112   0.453   5.087 -0.8709  0.3808 -0.2310
  212EMI    C06 4021   0.760   0.452   5.050  0.3435 -0.0942 -0.4104
  212EMI    H0F 4022   0.765   0.407   4.952  3.8687  2.4341 -1.6140
  212EMI    C0N 4023   0.675   0.373   5.138  0.3327 -0.0894 -0.4895
  212EMI    H0O 4024   0.575   0.362   5.096  0.0139  2.0285 -0.3753
  212EMI    H0P 4025   0.719   0.275   5.155 -0.0009 -0.3094 -0.8629
  212EMI    H0Q 4026   0.665   0.431   5.229 -1.6019  1.9448 -1.9008
  212EMI    N02 4027   0.899   0.468   5.090 -0.9336  0.2018 -0.4816
  212EMI    H0E 4028   0.710   0.548   5.045 -1.3972 -0.7182  2.6292
  213EMI    C01 4029   0.405   2.328   3.146  0.3584  0.3862 -0.1840
  213EMI    C04 4030   0.265   2.486   3.188  0.1973 -0.3253 -0.2674
  213EMI    C03 4031   0.224   2.429   3.079  0.2062  0.1854  0.1366
  213EMI    H07 4032   0.488   2.262   3.160 -1.8522 -2.0909  2.5362
  213EMI    H09 4033   0.223   2.565   3.246 -2.6114 -2.0015  0.1539
  213EMI    H08 4034   0.132   2.435   3.026  0.1939  1.0949  0.2460
  213EMI    C05 4035   0.315   2.244   2.926 -0.0857 -0.3807 -0.2418
  213EMI    H0B 4036   0.229   2.257   2.862 -1.6257 -0.5202  1.6918
  213EMI    H0C 4037   0.402   2.276   2.871  1.1728 -3.4666 -0.2384
  213EMI    H0D 4038   0.335   2.140   2.949 -1.5929 -0.7476 -0.4483
  213EMI    N00 4039   0.317   2.327   3.048  0.2456 -0.5862 -1.1955
  213EMI    C06 4040   0.454   2.468   3.346  0.1548  0.4902 -0.3075
  213EMI    H0F 4041   0.386   2.458   3.429  0.1719  0.7939 -0.2551
  213EMI    C0N 4042   0.568   2.371   3.391 -0.0637  0.2254 -0.4176
  213EMI    H0O 4043   0.622   2.415   3.475  2.4698 -1.6372 -0.9494
  213EMI    H0P 4044   0.523   2.276   3.417 -2.2764  0.9566 -1.3401
  213EMI    H0Q 4045   0.639   2.361   3.310 -0.7504  1.2925 -1.1784
  213EMI    N02 4046   0.378   2.426   3.232 -0.5624  0.7381 -0.1813
  213EMI    H0E 4047   0.500   2.564   3.328 -0.6597  0.6042 -2.0903
  214EMI    C01 4048   2.496   1.116   1.389 -0.1472  0.1854  0.0491
  214EMI    C04 4049   2.678   1.020   1.359  0.1126  0.5664 -0.4673
  214EMI    C03 4050   2.690   1.093   1.470 -0.1225 -0.4848 -0.1868
  214EMI    H07 4051   2.397   1.152   1.372 -1.0829 -1.7028  1.2066
  214EMI    H09 4052   2.742   0.936   1.342 -2.2731 -2.0058  2.2168
  214EMI    H08 4053   2.760   1.104   1.551  1.4583  0.5478 -1.6114
  214EMI    C05 4054   2.558   1.292   1.557 -0.6655  0.5139 -0.9059
  214EMI    H0B 4055   2.453   1.300   1.578 -0.4839 -1.4300  1.0757
  214EMI    H0C 4056   2.605   1.262   1.649 -1.8410 -2.5116 -1.1612
  214EMI    H0D 4057   2.608   1.381   1.521  2.7353 -1.5627 -1.7262
  214EMI    N00 4058   2.582   1.172   1.470  0.1169  0.0666 -0.5861
  214EMI    C06 4059   2.492   0.949   1.199  0.2613 -0.1475  0.4855
  214EMI    H0F 4060   2.525   0.848   1.220  1.5846 -0.3553 -2.1532
  214EMI    C0N 4061   2.341   0.953   1.182  0.7672  0.7644 -0.2805
  214EMI    H0O 4062   2.293   0.871   1.130 -2.8376  1.9509  0.9274
  214EMI    H0P 4063   2.300   0.961   1.282  0.7893 -0.3385 -0.1713
  214EMI    H0Q 4064   2.313   1.042   1.128  0.1392  0.8588  0.1984
  214EMI    N02 4065   2.551   1.029   1.310  0.4087  0.1742 -0.4703
  214EMI    H0E 4066   2.544   0.988   1.113  0.6880 -1.0298  0.3276
  215EMI    C01 4067   1.397   3.742   4.931 -0.6833 -0.3098  0.0331
  215EMI    C04 4068   1.500   3.634   5.095 -0.5994 -0.7198 -0.0520
  215EMI    C03 4069   1.484   3.550   4.992  0.1199  0.0375  1.0326
  215EMI    H07 4070   1.347   3.817   4.874  0.6465 -0.7082 -1.7343
  215EMI    H09 4071   1.536   3.607   5.192  1.8617  0.4655 -0.5662
  215EMI    H08 4072   1.522   3.450   4.994  0.1707  0.0619  1.4999
  215EMI    C05 4073   1.380   3.553   4.764  0.0574  0.2340 -0.0229
  215EMI    H0B 4074   1.276   3.555   4.734  0.4302  0.8624 -1.3922
  215EMI    H0C 4075   1.441   3.608   4.694  1.2064 -0.7747  0.1448
  215EMI    H0D 4076   1.419   3.453   4.752  2.2784  1.1669 -1.1984
  215EMI    N00 4077   1.418   3.613   4.893  0.4390 -0.4681  0.4099
  215EMI    C06 4078   1.429   3.871   5.138 -0.1844 -0.6566  0.5862
  215EMI    H0F 4079   1.436   3.958   5.074 -1.4399 -2.6400 -2.5096
  215EMI    C0N 4080   1.294   3.865   5.206  0.2783  0.1695 -0.3364
  215EMI    H0O 4081   1.285   3.940   5.283  0.3375  0.0340 -0.1979
  215EMI    H0P 4082   1.212   3.890   5.140 -0.4680  1.4937  1.0166
  215EMI    H0Q 4083   1.277   3.767   5.248 -4.0384  1.1727  0.7233
  215EMI    N02 4084   1.439   3.755   5.057 -0.3392 -0.2490  0.2949
  215EMI    H0E 4085   1.509   3.885   5.209 -0.6790  0.3939  0.9552
  216EMI    C01 4086   0.995   4.483   2.226  0.6726 -0.2835 -0.0250
  216EMI    C04 4087   1.028   4.277   2.152 -0.1249 -0.1191  0.0373
  216EMI    C03 4088   1.042   4.280   2.285 -0.4871 -0.2412  0.1613
  216EMI    H07 4089   0.983   4.589   2.232  0.6786 -0.3186  0.8147
  216EMI    H09 4090   1.025   4.189   2.092 -1.5406  1.2736 -2.1313
  216EMI    H08 4091   1.068   4.201   2.351  0.6569  2.2503  2.9032
  216EMI    C05 4092   1.037   4.458   2.474  0.4358  0.5650  0.2298
  216EMI    H0B 4093   0.955   4.433   2.540  0.2843 -1.1164 -0.5413
  216EMI    H0C 4094   1.125   4.407   2.511 -0.2847 -1.8054 -1.1153
  216EMI    H0D 4095   1.054   4.565   2.477 -2.3524  1.0962 -0.0585
  216EMI    N00 4096   1.025   4.414   2.333 -0.1228  0.2546  0.0569
  216EMI    C06 4097   0.961   4.447   1.984 -0.8359  0.3534  0.1931
  216EMI    H0F 4098   1.053   4.447   1.928 -0.5553 -1.5105  0.5911
  216EMI    C0N 4099   0.860   4.357   1.924  0.6984 -0.3160 -0.0447
  216EMI    H0O 4100   0.767   4.378   1.974 -0.3130  2.1752 -2.6958
  216EMI    H0P 4101   0.824   4.385   1.825 -1.0728  0.8454  0.8782
  216EMI    H0Q 4102   0.882   4.251   1.932  1.2968 -0.1934  0.0005
  216EMI    N02 4103   0.996   4.406   2.118  0.0898 -0.2931  0.9702
  216EMI    H0E 4104   0.922   4.547   1.994 -0.3044  0.4510  1.5105
  217EMI    C01 4105   2.471   2.708   4.087  0.1845 -0.0007 -0.2806
  217EMI    C04 4106   2.352   2.526   4.087  0.1260 -0.4130  0.0215
  217EMI    C03 4107   2.274   2.627   4.134 -0.1010  0.2971  0.5124
  217EMI    H07 4108   2.558   2.769   4.076  0.2973  0.3832  2.0834
  217EMI    H09 4109   2.331   2.423   4.073  0.4159 -0.2812 -1.5050
  217EMI    H08 4110   2.172   2.639   4.160  0.0890  0.9801  0.9709
  217EMI    C05 4111   2.289   2.877   4.134  0.1375 -0.3630 -1.2096
  217EMI    H0B 4112   2.253   2.868   4.236  2.4654 -1.9340 -0.4523
  217EMI    H0C 4113   2.367   2.950   4.146 -1.2845  1.0345  0.2107
  217EMI    H0D 4114   2.210   2.916   4.071 -0.6949  0.6917  0.4150
  217EMI    N00 4115   2.348   2.746   4.116 -0.0357  0.0567  0.5163
  217EMI    C06 4116   2.599   2.509   4.018  0.3599  0.1559 -0.1668
  217EMI    H0F 4117   2.637   2.467   4.110 -4.9412 -1.1425  1.7668
  217EMI    C0N 4118   2.577   2.399   3.907  0.3063 -0.3007 -1.0421
  217EMI    H0O 4119   2.677   2.362   3.892  1.5095  1.5910  1.4677
  217EMI    H0P 4120   2.519   2.315   3.942 -0.3474  0.0759 -1.1936
  217EMI    H0Q 4121   2.542   2.447   3.816  1.1637  2.2635 -0.1125
  217EMI    N02 4122   2.480   2.581   4.067 -0.1839 -0.6167  0.4958
  217EMI    H0E 4123   2.657   2.587   3.970  0.1834  0.0735 -0.5137
  218EMI    C01 4124   4.015   2.173   4.869  0.0316  0.4195  0.2857
  218EMI    C04 4125   3.826   2.244   4.777  0.6494  0.0309 -0.0504
  218EMI    C03 4126   3.879   2.148   4.696 -0.2064  0.1924 -0.9528
  218EMI    H07 4127   4.101   2.180   4.931  0.7243 -0.0029 -0.6157
  218EMI    H09 4128   3.741   2.310   4.772 -1.1933 -2.2028  0.2660
  218EMI    H08 4129   3.848   2.120   4.598  1.3472  1.1111 -1.7559
  218EMI    C05 4130   4.093   2.015   4.690 -0.3032  0.3916 -0.3856
  218EMI    H0B 4131   4.135   2.064   4.603 -0.2103 -0.2338 -0.7028
  218EMI    H0C 4132   4.176   1.978   4.748 -1.6049 -0.7337  0.8187
  218EMI    H0D 4133   4.037   1.929   4.656  0.2500  0.4996 -1.6340
  218EMI    N00 4134   4.000   2.104   4.756  0.1142  0.1040 -0.0517
  218EMI    C06 4135   3.903   2.370   4.976  0.1523 -0.2607 -0.5313
  218EMI    H0F 4136   3.892   2.467   4.930  1.9530 -1.1321 -3.0292
  218EMI    C0N 4137   3.802   2.323   5.084 -0.4023 -0.4352  0.0415
  218EMI    H0O 4138   3.725   2.399   5.094 -1.4042 -1.1728 -1.6841
  218EMI    H0P 4139   3.753   2.237   5.040 -0.5245  0.5508 -1.9051
  218EMI    H0Q 4140   3.852   2.301   5.177 -0.3191 -0.5061 -0.0198
  218EMI    N02 4141   3.918   2.265   4.875  0.3069 -0.3203 -0.3294
  218EMI    H0E 4142   4.004   2.364   5.014 -1.6058 -0.7940  4.9206
  219EMI    C01 4143   3.431   1.577   2.617 -0.2163 -1.3216 -0.2037
  219EMI    C04 4144   3.309   1.410   2.679  0.2597 -0.0619  0.0250
  219EMI    C03 4145   3.261   1.453   2.562  0.0167 -0.5789 -0.4891
  219EMI    H07 4146   3.518   1.639   2.620 -0.1930 -1.3873  1.0760
  219EMI    H09 4147   3.285   1.317   2.725  1.7586 -1.0541 -1.0930
  219EMI    H08 4148   3.178   1.430   2.499 -1.8629  1.0219  1.2729
  219EMI    C05 4149   3.314   1.639   2.403  0.4704  0.2015 -0.5062
  219EMI    H0B 4150   3.412   1.673   2.371  0.0024  2.1765  0.0444
  219EMI    H0C 4151   3.272   1.570   2.330  0.4963 -0.4762  0.1086
  219EMI    H0D 4152   3.240   1.714   2.424  0.3917  0.1974 -0.7657
  219EMI    N00 4153   3.339   1.564   2.526 -0.3831 -0.2694  0.0569
  219EMI    C06 4154   3.521   1.448   2.805  0.5142  0.1443 -0.2788
  219EMI    H0F 4155   3.622   1.448   2.766  1.7086 -0.3216  2.5753
  219EMI    C0N 4156   3.506   1.555   2.907  0.2883 -0.6689  0.1032
  219EMI    H0O 4157   3.605   1.586   2.942  0.1352  0.5681 -0.4989
  219EMI    H0P 4158   3.463   1.647   2.868 -1.6228 -1.0099  1.2759
  219EMI    H0Q 4159   3.449   1.527   2.995  2.1379 -0.0587  1.5856
  219EMI    N02 4160   3.424   1.477   2.699 -0.3360 -0.0595  0.1605
  219EMI    H0E 4161   3.502   1.347   2.838  2.0660 -0.1939 -0.3229
  220EMI    C01 4162   2.812   3.250   1.819 -0.5663 -0.6578 -0.7292
  220EMI    C04 4163   2.599   3.260   1.871 -0.5788 -0.2498 -0.2825
  220EMI    C03 4164   2.667   3.248   1.979 -0.8370 -0.2082 -0.5707
  220EMI    H07 4165   2.906   3.251   1.768  0.3510 -1.4683  0.8576
  220EMI    H09 4166   2.492   3.258   1.861 -0.6887 -1.2901  0.8323
  220EMI    H08 4167   2.629   3.225   2.076  1.0502  1.5937  0.6989
  220EMI    C05 4168   2.914   3.221   2.052 -0.7937  0.0622  0.6950
  220EMI    H0B 4169   2.932   3.315   2.102 -3.1417  1.3240 -0.6356
  220EMI    H0C 4170   2.893   3.140   2.120 -3.0755 -1.7008 -1.8672
  220EMI    H0D 4171   3.002   3.180   2.005 -2.0621 -0.7817 -1.0810
  220EMI    N00 4172   2.805   3.237   1.951 -0.0489 -0.0193 -0.4748
  220EMI    C06 4173   2.654   3.321   1.632 -0.3485 -0.6160  0.4380
  220EMI    H0F 4174   2.605   3.245   1.575 -0.4052  1.5614 -2.6552
  220EMI    C0N 4175   2.569   3.450   1.643  0.1900  0.1854  0.2318
  220EMI    H0O 4176   2.604   3.521   1.716 -1.9227  1.8272 -0.2504
  220EMI    H0P 4177   2.547   3.502   1.551 -1.3336 -2.9969 -1.3803
  220EMI    H0Q 4178   2.469   3.433   1.681  0.5475  0.5174  1.3682
  220EMI    N02 4179   2.691   3.268   1.764 -0.5244  0.4880 -0.3337
  220EMI    H0E 4180   2.744   3.346   1.578 -0.7264 -1.0273 -0.3967
  221EMI    C01 4181   0.142   3.199   2.051 -0.5269 -1.1249  0.0817
  221EMI    C04 4182   0.241   3.138   2.231 -0.0303 -0.1722 -0.0246
  221EMI    C03 4183   0.148   3.049   2.208 -0.5306 -0.0706  0.5620
  221EMI    H07 4184   0.109   3.248   1.961  1.2487 -1.3951 -0.7535
  221EMI    H09 4185   0.303   3.147   2.318 -0.6186  0.3439  0.3506
  221EMI    H08 4186   0.112   2.963   2.261  0.0195 -0.5009  0.2555
  221EMI    C05 4187  -0.016   3.007   2.026  0.1294 -0.4782  0.3711
  221EMI    H0B 4188  -0.043   2.917   2.079 -1.3062 -1.5784 -2.0714
  221EMI    H0C 4189  -0.099   3.075   2.037  1.2553  1.1531 -0.8409
  221EMI    H0D 4190   0.009   2.979   1.925 -1.5833  0.5315 -0.3760
  221EMI    N00 4191   0.090   3.082   2.085 -0.2733  0.1139 -0.4037
  221EMI    C06 4192   0.326   3.355   2.118  0.2201  0.4208  0.7745
  221EMI    H0F 4193   0.295   3.412   2.032 -1.1626 -1.9859 -0.4354
  221EMI    C0N 4194   0.313   3.433   2.246  0.0519  0.2505  0.1269
  221EMI    H0O 4195   0.388   3.511   2.248 -0.4932  0.7716  0.2682
  221EMI    H0P 4196   0.207   3.456   2.244  0.1927  1.0077  0.7177
  221EMI    H0Q 4197   0.318   3.368   2.333 -1.7370  0.3983  0.3696
  221EMI    N02 4198   0.243   3.230   2.128  0.3906  0.3061 -0.4763
  221EMI    H0E 4199   0.429   3.328   2.095 -0.4085 -1.3588 -0.1715
  222EMI    C01 4200   0.143   1.657   2.670 -0.3794  0.9383 -0.5658
  222EMI    C04 4201   0.124   1.439   2.672  0.1116  0.1724  0.0522
  222EMI    C03 4202   0.137   1.481   2.800  1.3479 -0.0251  0.2095
  222EMI    H07 4203   0.154   1.761   2.650 -2.0015  2.0402  3.3105
  222EMI    H09 4204   0.118   1.338   2.636  0.2661  0.0575  0.3466
  222EMI    H08 4205   0.127   1.417   2.885 -0.8818  1.9747  1.5729
  222EMI    C05 4206   0.170   1.701   2.917  0.3525 -0.3322 -0.3046
  222EMI    H0B 4207   0.097   1.679   2.993  1.9287  0.3472  1.4703
  222EMI    H0C 4208   0.270   1.691   2.956  0.9975  0.4655 -1.6540
  222EMI    H0D 4209   0.157   1.803   2.886  1.1969  0.7962  2.7098
  222EMI    N00 4210   0.143   1.618   2.797  0.1929 -0.3965 -0.2785
  222EMI    C06 4211   0.129   1.547   2.445  0.0310 -0.1896  0.9001
  222EMI    H0F 4212   0.086   1.641   2.414  0.3819 -0.4634 -0.4755
  222EMI    C0N 4213   0.275   1.509   2.403 -0.2118 -0.4550  0.2501
  222EMI    H0O 4214   0.291   1.406   2.430  0.6880 -0.5787 -0.7127
  222EMI    H0P 4215   0.285   1.537   2.298  0.4022  3.2623  1.1443
  222EMI    H0Q 4216   0.343   1.572   2.459 -1.7602 -0.1189  1.8592
  222EMI    N02 4217   0.129   1.548   2.593 -0.0436  1.3222  0.0524
  222EMI    H0E 4218   0.053   1.481   2.408  0.9805 -0.0253 -1.5221
  223EMI    C01 4219   4.696   3.557   1.888  0.1475  0.2763  0.2554
  223EMI    C04 4220   4.881   3.611   1.991 -0.3678  0.2940 -0.5852
  223EMI    C03 4221   4.908   3.621   1.862 -0.4995  0.1337 -0.2118
  223EMI    H07 4222   4.599   3.518   1.866  0.6280 -1.0883  0.4650
  223EMI    H09 4223   4.950   3.621   2.073 -0.1345 -1.7563 -0.4680
  223EMI    H08 4224   5.001   3.655   1.821 -0.5782  1.6428  0.7732
  223EMI    C05 4225   4.769   3.589   1.650  0.6423  0.8620  0.0178
  223EMI    H0B 4226   4.854   3.642   1.610  0.9621  0.7972  0.5881
  223EMI    H0C 4227   4.768   3.486   1.616 -0.3928 -0.2224  2.9933
  223EMI    H0D 4228   4.676   3.633   1.620  0.1873  0.4158  0.7377
  223EMI    N00 4229   4.791   3.588   1.795  0.0559 -0.8041 -0.5749
  223EMI    C06 4230   4.683   3.524   2.132  0.6113  0.4109 -0.0292
  223EMI    H0F 4231   4.575   3.518   2.121  0.5931 -1.2859  0.7017
  223EMI    C0N 4232   4.743   3.393   2.183 -0.3625  0.0686 -0.5381
  223EMI    H0O 4233   4.698   3.307   2.133  2.7784 -1.7774 -0.4191
  223EMI    H0P 4234   4.849   3.395   2.164 -0.1198  1.6253  0.8008
  223EMI    H0Q 4235   4.725   3.398   2.290  0.7209  1.6241 -0.3965
  223EMI    N02 4236   4.745   3.569   2.008  0.3077 -0.4352 -0.2677
  223EMI    H0E 4237   4.697   3.597   2.210 -0.7024  0.5932  0.0706
  224EMI    C01 4238   4.698   1.308   1.127 -0.0605 -0.1945 -0.4501
  224EMI    C04 4239   4.700   1.469   1.276  0.9112  0.4126 -0.2311
  224EMI    C03 4240   4.816   1.471   1.212 -0.3533  0.0812 -0.2771
  224EMI    H07 4241   4.648   1.224   1.084 -0.6894  0.2058 -0.5163
  224EMI    H09 4242   4.656   1.536   1.346  0.9375  0.3794 -0.1826
  224EMI    H08 4243   4.899   1.536   1.224  0.2666 -0.4343 -1.5907
  224EMI    C05 4244   4.918   1.343   1.027  0.0502  0.2174 -0.1725
  224EMI    H0B 4245   4.930   1.404   0.939  1.1033  1.2475  0.6488
  224EMI    H0C 4246   5.004   1.351   1.091  0.0472 -1.5286  0.1166
  224EMI    H0D 4247   4.909   1.238   1.001 -0.9520  0.7665 -2.2205
  224EMI    N00 4248   4.811   1.373   1.116  0.0536  0.0651  0.4995
  224EMI    C06 4249   4.488   1.335   1.260 -0.8753  0.2952 -0.0991
  224EMI    H0F 4250   4.469   1.399   1.345  0.2063  4.5631 -2.7189
  224EMI    C0N 4251   4.391   1.360   1.150  0.7286  0.0499  0.1595
  224EMI    H0O 4252   4.319   1.432   1.185 -3.2448 -4.1459  1.5443
  224EMI    H0P 4253   4.434   1.369   1.050  1.3806 -1.0472  0.3311
  224EMI    H0Q 4254   4.334   1.269   1.149  1.2161 -0.2808 -1.7642
  224EMI    N02 4255   4.627   1.366   1.224  0.4651  0.4523  0.4549
  224EMI    H0E 4256   4.478   1.238   1.306 -3.0429 -0.3184 -1.7185
  225EMI    C01 4257   2.276   0.281   4.631  0.6485 -0.1220 -0.1721
  225EMI    C04 4258   2.332   0.488   4.586 -0.3340  0.2732  0.3932
  225EMI    C03 4259   2.429   0.403   4.533 -0.0291 -0.0271  0.0365
  225EMI    H07 4260   2.217   0.201   4.670  1.1674 -2.0286 -2.9625
  225EMI    H09 4261   2.348   0.594   4.590  2.3006  0.0251 -0.7904
  225EMI    H08 4262   2.522   0.423   4.486 -1.4609  1.7335 -2.2490
  225EMI    C05 4263   2.472   0.151   4.552  0.7298  0.0141  0.0321
  225EMI    H0B 4264   2.485   0.111   4.652  1.8835  0.6197  0.1484
  225EMI    H0C 4265   2.412   0.092   4.485 -0.2211  1.1487 -0.1365
  225EMI    H0D 4266   2.571   0.175   4.515  0.0853  0.6862 -1.3107
  225EMI    N00 4267   2.394   0.272   4.570  0.1201 -0.3478  0.9625
  225EMI    C06 4268   2.112   0.458   4.701 -0.3012 -0.6174  0.3332
  225EMI    H0F 4269   2.060   0.383   4.759 -0.6221 -0.6061  0.0642
  225EMI    C0N 4270   2.128   0.582   4.784 -0.4649  0.3936 -0.0003
  225EMI    H0O 4271   2.036   0.605   4.835  0.5009  1.6880  1.2230
  225EMI    H0P 4272   2.204   0.579   4.861 -1.0321  0.0041  0.5585
  225EMI    H0Q 4273   2.149   0.663   4.715 -1.4632 -0.5986 -1.5414
  225EMI    N02 4274   2.236   0.407   4.641 -0.0854 -0.6654 -0.1774
  225EMI    H0E 4275   2.047   0.486   4.620  0.5397 -0.3597 -0.2625
  226EMI    C01 4276   3.410   2.767   3.674  0.0749 -0.1029  0.6513
  226EMI    C04 4277   3.458   2.562   3.729  0.4043  0.3458  0.3729
  226EMI    C03 4278   3.382   2.564   3.621  0.4783  0.7276 -0.1383
  226EMI    H07 4279   3.400   2.874   3.672 -0.0849 -0.1299 -0.1408
  226EMI    H09 4280   3.506   2.478   3.774 -1.7341 -1.2043 -0.0842
  226EMI    H08 4281   3.354   2.485   3.554 -1.5896  0.1394  1.3071
  226EMI    C05 4282   3.307   2.733   3.455  0.2699  0.0030 -0.6698
  226EMI    H0B 4283   3.200   2.727   3.466  0.4699 -0.4717  1.3984
  226EMI    H0C 4284   3.348   2.832   3.439  1.0898  0.0315  1.2958
  226EMI    H0D 4285   3.350   2.679   3.372  0.1729  1.8242 -1.9749
  226EMI    N00 4286   3.363   2.693   3.582  0.3392 -0.4033 -0.3139
  226EMI    C06 4287   3.552   2.734   3.890 -0.8549 -0.2194 -0.0951
  226EMI    H0F 4288   3.631   2.798   3.854  1.6179 -1.6432  2.4757
  226EMI    C0N 4289   3.480   2.787   4.010  0.1156 -0.4600 -0.3387
  226EMI    H0O 4290   3.450   2.891   4.005 -1.1524 -0.8522 -1.7299
  226EMI    H0P 4291   3.386   2.737   4.028  0.3639 -0.8529 -0.1216
  226EMI    H0Q 4292   3.537   2.775   4.101  0.3665  1.8681 -0.1447
  226EMI    N02 4293   3.470   2.692   3.769  0.4165  0.1128 -0.4369
  226EMI    H0E 4294   3.596   2.639   3.917  0.4187  0.3304 -0.1767
  227EMI    C01 4295   3.100   3.717   4.510 -0.0483 -0.7108 -0.5143
  227EMI    C04 4296   3.251   3.835   4.614  0.0703  0.2004 -0.3374
  227EMI    C03 4297   3.188   3.913   4.523 -0.3605  0.4870  0.0486
  227EMI    H07 4298   3.034   3.635   4.491 -0.7873 -0.5538  1.1301
  227EMI    H09 4299   3.322   3.863   4.688 -1.1334  0.0144  0.9202
  227EMI    H08 4300   3.207   4.016   4.500 -1.1337  0.9238  1.2664
  227EMI    C05 4301   2.982   3.889   4.375 -0.0833  0.3628 -1.2007
  227EMI    H0B 4302   2.887   3.853   4.410 -0.5160  3.3598  1.1170
  227EMI    H0C 4303   2.976   3.995   4.398  0.5937  0.3394 -0.8788
  227EMI    H0D 4304   2.992   3.865   4.270  1.1739  1.5536 -1.3924
  227EMI    N00 4305   3.087   3.841   4.466 -0.3317 -0.0225 -0.4693
  227EMI    C06 4306   3.213   3.595   4.700  0.4355  0.7361 -0.7688
  227EMI    H0F 4307   3.129   3.592   4.767  1.0694  2.7550  0.1912
  227EMI    C0N 4308   3.250   3.459   4.632 -0.3152 -0.0369 -0.0730
  227EMI    H0O 4309   3.304   3.408   4.711 -1.0304  2.0677  1.8872
  227EMI    H0P 4310   3.161   3.402   4.609  0.2307 -1.6544  1.5908
  227EMI    H0Q 4311   3.314   3.482   4.548  0.3945 -0.3933  0.3657
  227EMI    N02 4312   3.190   3.715   4.605  0.0734  0.4278  0.1175
  227EMI    H0E 4313   3.292   3.618   4.770 -1.8032 -0.2123  2.2781
  228EMI    C01 4314   4.280   2.047   3.943  0.3584  0.2168 -0.0244
  228EMI    C04 4315   4.337   1.848   3.968 -0.6264  0.5855 -0.3315
  228EMI    C03 4316   4.348   1.913   4.087 -0.6526 -0.1431  0.1558
  228EMI    H07 4317   4.227   2.133   3.909 -1.6189  0.6954  3.6941
  228EMI    H09 4318   4.339   1.743   3.949 -1.4372  0.7962 -1.7406
  228EMI    H08 4319   4.381   1.873   4.180  2.0510 -1.1223 -1.1143
  228EMI    C05 4320   4.343   2.149   4.173 -0.1440 -0.1545 -0.6846
  228EMI    H0B 4321   4.446   2.180   4.184  0.1056 -0.9572 -0.6954
  228EMI    H0C 4322   4.292   2.234   4.131 -0.6276 -0.4020 -0.6020
  228EMI    H0D 4323   4.298   2.120   4.267  1.0683 -0.2999 -0.1330
  228EMI    N00 4324   4.334   2.044   4.066  0.1575  0.2733  0.4278
  228EMI    C06 4325   4.267   1.911   3.733  0.0444  0.2926  0.3203
  228EMI    H0F 4326   4.257   2.006   3.683  0.6074  0.2087  0.0397
  228EMI    C0N 4327   4.372   1.834   3.666 -0.0404 -0.2338  0.4782
  228EMI    H0O 4328   4.377   1.839   3.558 -0.8603 -2.4126  0.2886
  228EMI    H0P 4329   4.469   1.862   3.707 -0.2068  0.5036  0.3797
  228EMI    H0Q 4330   4.359   1.732   3.699 -0.4685 -0.6125 -0.8075
  228EMI    N02 4331   4.302   1.942   3.875 -0.0596  0.0086  0.8219
  228EMI    H0E 4332   4.171   1.862   3.721 -0.6078  1.6686 -0.2501
  229EMI    C01 4333   0.586   3.846   4.817 -0.1395  0.7599 -0.2375
  229EMI    C04 4334   0.434   3.995   4.785 -0.6583  0.0136  0.0800
  229EMI    C03 4335   0.416   3.942   4.906 -0.6079 -0.0339  0.3308
  229EMI    H07 4336   0.669   3.783   4.791 -0.4938 -0.1138  0.6689
  229EMI    H09 4337   0.380   4.078   4.745  1.0339  0.3712 -1.6087
  229EMI    H08 4338   0.346   3.967   4.983 -2.5750 -1.2723 -0.9418
  229EMI    C05 4339   0.524   3.760   5.042 -0.4304  0.2910  0.5208
  229EMI    H0B 4340   0.561   3.813   5.129  1.6574 -2.7506  1.6546
  229EMI    H0C 4341   0.435   3.707   5.072 -1.2328  0.5497 -1.2355
  229EMI    H0D 4342   0.605   3.690   5.028  0.5909  1.2266  1.5765
  229EMI    N00 4343   0.510   3.841   4.922  0.4256 -0.2163  0.2710
  229EMI    C06 4344   0.584   3.946   4.588  0.4242  0.1079  0.0249
  229EMI    H0F 4345   0.560   3.847   4.552 -1.0146  0.8053 -1.0285
  229EMI    C0N 4346   0.509   4.047   4.506  0.3574  1.0740  0.7239
  229EMI    H0O 4347   0.405   4.015   4.501  0.8503 -0.4014 -1.3971
  229EMI    H0P 4348   0.521   4.151   4.531 -0.2952  1.0715  1.0645
  229EMI    H0Q 4349   0.545   4.034   4.405 -4.3234 -0.3977 -1.0576
  229EMI    N02 4350   0.543   3.937   4.729 -0.4294  0.1116  0.1989
  229EMI    H0E 4351   0.688   3.973   4.574  0.3921 -0.8388 -2.6573
  230EMI    C01 4352   3.801   2.981   3.277  0.0904  0.2233  0.1915
  230EMI    C04 4353   3.582   3.001   3.253 -0.4781 -0.4020 -0.8735
  230EMI    C03 4354   3.628   3.084   3.345  0.0099 -0.0742 -0.0597
  230EMI    H07 4355   3.900   2.948   3.251 -0.2049  0.3566 -1.2103
  230EMI    H09 4356   3.484   2.975   3.221 -0.3339 -1.8563 -0.2011
  230EMI    H08 4357   3.579   3.150   3.414  2.2327  1.3597  0.2607
  230EMI    C05 4358   3.863   3.176   3.402  0.1978 -0.9786 -0.4042
  230EMI    H0B 4359   3.804   3.255   3.446  1.0240 -0.0478 -0.9427
  230EMI    H0C 4360   3.930   3.136   3.477  0.2588 -1.0014 -0.4707
  230EMI    H0D 4361   3.926   3.210   3.321 -0.7721  1.5137 -0.1923
  230EMI    N00 4362   3.769   3.074   3.353  0.1640  0.3513 -0.2539
  230EMI    C06 4363   3.713   2.842   3.087 -0.4543 -0.0220 -0.0142
  230EMI    H0F 4364   3.810   2.854   3.040 -1.0275 -0.5695 -1.3934
  230EMI    C0N 4365   3.691   2.694   3.128  0.7900 -0.0258  0.7048
  230EMI    H0O 4366   3.776   2.663   3.187  2.0090  2.0373  0.1550
  230EMI    H0P 4367   3.601   2.672   3.183 -0.3734  0.5305 -0.8746
  230EMI    H0Q 4368   3.679   2.635   3.038 -0.5380 -0.0039  0.8436
  230EMI    N02 4369   3.697   2.941   3.202 -0.1702 -0.2829  0.2243
  230EMI    H0E 4370   3.653   2.881   3.006 -0.7862  1.4710  0.9066
  231EMI    C01 4371   0.880   4.848   3.197 -0.1434  0.2009  0.6574
  231EMI    C04 4372   0.688   4.938   3.228 -0.3870  0.3813 -0.7108
  231EMI    C03 4373   0.777   5.031   3.255  0.2310  0.4458 -0.1461
  231EMI    H07 4374   0.946   4.767   3.174 -0.3273  0.6457 -1.7894
  231EMI    H09 4375   0.582   4.947   3.223 -0.2745  1.2060 -2.9803
  231EMI    H08 4376   0.755   5.133   3.278 -0.8724  0.1693  0.0785
  231EMI    C05 4377   1.035   5.031   3.264  0.8571  0.9684 -0.2865
  231EMI    H0B 4378   1.064   5.108   3.194  0.8668  1.2623  0.0349
  231EMI    H0C 4379   1.031   5.064   3.367 -0.9477 -1.0281  0.3738
  231EMI    H0D 4380   1.107   4.951   3.252 -1.4897 -1.2777 -0.3323
  231EMI    N00 4381   0.899   4.972   3.236  0.3301 -0.3047 -0.1838
  231EMI    C06 4382   0.678   4.713   3.107  0.0973  0.1170 -0.2147
  231EMI    H0F 4383   0.732   4.624   3.136  0.4253  0.3821 -0.0105
  231EMI    C0N 4384   0.539   4.691   3.156  0.5327 -0.4089 -0.1631
  231EMI    H0O 4385   0.542   4.675   3.263 -1.3835 -0.2481 -0.0541
  231EMI    H0P 4386   0.471   4.773   3.139 -1.9308 -1.5964  3.0813
  231EMI    H0Q 4387   0.498   4.599   3.114 -0.8126  0.7151 -1.4177
  231EMI    N02 4388   0.750   4.829   3.176 -0.0310 -0.1989 -0.1611
  231EMI    H0E 4389   0.688   4.718   2.999  2.2370 -2.4623 -0.2452
  232EMI    C01 4390   1.235   3.406   3.184 -0.3650  0.3616  0.5762
  232EMI    C04 4391   1.420   3.342   3.276 -0.7185  0.3482  0.1236
  232EMI    C03 4392   1.374   3.235   3.212  0.0310 -0.3247  0.7203
  232EMI    H07 4393   1.142   3.454   3.164 -1.0376 -0.4828  1.5981
  232EMI    H09 4394   1.499   3.349   3.347  2.4793  1.8071 -3.2392
  232EMI    H08 4395   1.401   3.132   3.210 -2.8539 -1.1754  1.7575
  232EMI    C05 4396   1.176   3.197   3.072 -0.0935 -0.0225  0.4562
  232EMI    H0B 4397   1.184   3.100   3.119  3.6889  0.1509  0.4492
  232EMI    H0C 4398   1.074   3.232   3.065  0.5222  1.4797 -1.5962
  232EMI    H0D 4399   1.224   3.184   2.976 -0.7046  0.5175  0.0720
  232EMI    N00 4400   1.255   3.276   3.153 -1.0188 -0.0668 -0.5509
  232EMI    C06 4401   1.340   3.572   3.333 -0.3263  0.6903  0.1144
  232EMI    H0F 4402   1.260   3.561   3.405  0.0861 -1.4006  0.3252
  232EMI    C0N 4403   1.483   3.610   3.382  0.1778  0.8512  0.3062
  232EMI    H0O 4404   1.553   3.581   3.305  0.6571 -0.5487  1.2374
  232EMI    H0P 4405   1.499   3.716   3.398  1.0851  1.1157 -2.0885
  232EMI    H0Q 4406   1.494   3.559   3.478  0.6259  0.4552  0.0507
  232EMI    N02 4407   1.337   3.450   3.254  0.2253  0.1833  0.5180
  232EMI    H0E 4408   1.320   3.656   3.269  0.2894  0.6852 -0.0860
  233EMI    C01 4409   0.976   1.549   0.045  0.3307  0.6860 -0.7771
  233EMI    C04 4410   1.095   1.576  -0.132 -0.2637 -0.3258  0.0497
  233EMI    C03 4411   1.104   1.687  -0.050  0.7160 -0.0977  0.0267
  233EMI    H07 4412   0.911   1.507   0.119 -0.1899  1.5461 -0.7319
  233EMI    H09 4413   1.141   1.568  -0.228  1.2810 -0.1202  0.7354
  233EMI    H08 4414   1.165   1.774  -0.060  0.7953 -0.2112 -0.5313
  233EMI    C05 4415   1.053   1.727   0.198  0.0823  0.4181 -0.4428
  233EMI    H0B 4416   0.978   1.805   0.194 -0.8309 -0.3808  0.4088
  233EMI    H0C 4417   1.032   1.664   0.283  0.4646  0.8723 -0.0099
  233EMI    H0D 4418   1.148   1.777   0.201  0.2058  0.1696 -0.1873
  233EMI    N00 4419   1.047   1.654   0.073 -0.2049 -0.2130 -0.1378
  233EMI    C06 4420   0.934   1.374  -0.113  0.0510 -0.1620  0.0536
  233EMI    H0F 4421   0.873   1.407  -0.195 -0.3165  0.3329  0.5159
  233EMI    C0N 4422   1.035   1.267  -0.149 -0.3295 -0.4153  0.1666
  233EMI    H0O 4423   1.109   1.246  -0.073 -2.9252 -0.0611  2.9739
  233EMI    H0P 4424   0.990   1.171  -0.173 -0.7133 -0.2424  0.1973
  233EMI    H0Q 4425   1.091   1.299  -0.236 -0.0565 -0.2587  0.3970
  233EMI    N02 4426   0.998   1.499  -0.072 -0.4027 -0.2504  0.4663
  233EMI    H0E 4427   0.878   1.336  -0.029 -2.9432  1.4138 -1.0897
  234EMI    C01 4428   1.126   3.635   2.517  1.0765 -0.2672  0.4277
  234EMI    C04 4429   1.123   3.842   2.581 -0.4539 -0.5868 -0.9990
  234EMI    C03 4430   1.072   3.770   2.679 -0.0966  0.1577  0.0045
  234EMI    H07 4431   1.147   3.552   2.453  2.4936  0.5835 -0.2635
  234EMI    H09 4432   1.134   3.948   2.579  1.9197 -0.7854 -0.8865
  234EMI    H08 4433   1.028   3.798   2.772 -1.5983  0.0347 -0.6406
  234EMI    C05 4434   1.033   3.523   2.717  0.0866  0.3963 -0.5459
  234EMI    H0B 4435   1.096   3.488   2.797 -2.8634  0.0472  1.8022
  234EMI    H0C 4436   0.937   3.523   2.766  0.5667 -0.9542  0.4448
  234EMI    H0D 4437   1.035   3.450   2.637 -0.8959 -2.8477  2.1299
  234EMI    N00 4438   1.078   3.640   2.642  0.2273 -0.1775 -0.4071
  234EMI    C06 4439   1.216   3.810   2.347 -0.4596  0.1842 -0.5795
  234EMI    H0F 4440   1.179   3.909   2.325 -1.1303  0.1161  0.1676
  234EMI    C0N 4441   1.362   3.788   2.347 -0.6602  0.3655 -0.5350
  234EMI    H0O 4442   1.432   3.854   2.296  0.5333  1.8937  2.8221
  234EMI    H0P 4443   1.385   3.793   2.452 -0.2621 -0.4142 -0.5750
  234EMI    H0Q 4444   1.362   3.685   2.314 -0.6137  0.1549  0.1117
  234EMI    N02 4445   1.161   3.756   2.479  0.8930  0.6077  0.0840
  234EMI    H0E 4446   1.172   3.764   2.260  0.1899 -0.9027 -0.3502
  235EMI    C01 4447   2.902   3.347   0.340  0.2873  1.3610 -0.3609
  235EMI    C04 4448   2.789   3.210   0.474 -0.0412  0.7607  0.2641
  235EMI    C03 4449   2.913   3.169   0.475  0.2383 -0.5524 -0.2011
  235EMI    H07 4450   2.937   3.424   0.275  0.7381 -0.4955 -2.4481
  235EMI    H09 4451   2.698   3.172   0.515 -0.8103  2.8793  0.6787
  235EMI    H08 4452   2.949   3.077   0.516 -1.0554 -0.8037  0.4181
  235EMI    C05 4453   3.127   3.252   0.358  0.0967  0.2081 -0.4516
  235EMI    H0B 4454   3.154   3.168   0.296 -0.6060 -0.2745 -0.1216
  235EMI    H0C 4455   3.158   3.342   0.307  2.6860  1.8097  3.4402
  235EMI    H0D 4456   3.185   3.257   0.449 -0.9076  2.2015  0.1471
  235EMI    N00 4457   2.983   3.256   0.392  0.4564  0.1927 -0.0676
  235EMI    C06 4458   2.660   3.389   0.346  0.2475 -0.5728  0.1634
  235EMI    H0F 4459   2.703   3.472   0.293  1.2229 -0.1531  1.5429
  235EMI    C0N 4460   2.568   3.289   0.276 -0.0901 -0.0853 -0.4172
  235EMI    H0O 4461   2.479   3.333   0.232  0.3573  2.1453  0.7610
  235EMI    H0P 4462   2.617   3.239   0.193  0.4822  1.3974 -1.0204
  235EMI    H0Q 4463   2.532   3.226   0.356 -1.8443  0.3882 -0.7895
  235EMI    N02 4464   2.781   3.321   0.391 -1.0793  0.1656 -0.6746
  235EMI    H0E 4465   2.602   3.442   0.420 -1.0863  1.3048 -2.0897
  236EMI    C01 4466   0.362   4.798   0.673  0.0685 -0.0105 -0.9069
  236EMI    C04 4467   0.157   4.731   0.661  0.1488 -0.2100  0.3670
  236EMI    C03 4468   0.226   4.636   0.723  0.1843 -1.1505 -0.2649
  236EMI    H07 4469   0.453   4.852   0.664 -1.0012  1.9560 -0.4974
  236EMI    H09 4470   0.059   4.725   0.618  0.8517 -1.4984 -1.1455
  236EMI    H08 4471   0.191   4.539   0.753  0.5143 -1.0359  0.5147
  236EMI    C05 4472   0.460   4.607   0.800 -0.2153  0.0664  1.0678
  236EMI    H0B 4473   0.422   4.544   0.879 -0.4856 -0.4614  0.5268
  236EMI    H0C 4474   0.511   4.558   0.719 -2.0455 -0.1106 -0.0367
  236EMI    H0D 4475   0.527   4.680   0.843  2.6633 -0.9555 -1.3958
  236EMI    N00 4476   0.353   4.682   0.729  0.5820 -0.4749  0.2444
  236EMI    C06 4477   0.207   4.967   0.576 -0.3122 -0.1172  0.3024
  236EMI    H0F 4478   0.295   5.014   0.535 -1.5484  2.3676  0.2841
  236EMI    C0N 4479   0.119   4.965   0.457  0.2315 -0.0612  0.1959
  236EMI    H0O 4480   0.020   4.933   0.485 -0.2334  1.2334  0.0938
  236EMI    H0P 4481   0.100   5.058   0.404  2.0038 -0.1252 -0.6383
  236EMI    H0Q 4482   0.144   4.896   0.377  0.5828 -0.6548  0.8085
  236EMI    N02 4483   0.243   4.835   0.634  0.0401 -0.0297 -0.6503
  236EMI    H0E 4484   0.166   5.030   0.654 -0.4047 -0.3604  0.4497
  237EMI    C01 4485   2.704   0.517   3.826  0.4540  0.3674  0.0113
  237EMI    C04 4486   2.771   0.375   3.679 -0.4175 -0.1412 -0.2134
  237EMI    C03 4487   2.871   0.456   3.701 -1.1168 -0.2967 -0.0092
  237EMI    H07 4488   2.640   0.576   3.888 -0.2917  0.6920 -1.0220
  237EMI    H09 4489   2.772   0.291   3.613 -1.7042 -0.0948 -0.3300
  237EMI    H08 4490   2.970   0.445   3.662 -1.1632  1.9199 -0.9055
  237EMI    C05 4491   2.924   0.623   3.877  0.1368 -0.0187 -0.8412
  237EMI    H0B 4492   3.016   0.638   3.822  0.6890 -0.6320 -0.1295
  237EMI    H0C 4493   2.868   0.711   3.904  1.5294  0.9097 -0.8720
  237EMI    H0D 4494   2.950   0.565   3.965  0.6578  0.4514 -0.6793
  237EMI    N00 4495   2.836   0.539   3.801  0.8300  0.0457  0.0742
  237EMI    C06 4496   2.540   0.336   3.759 -0.9248 -0.0645 -0.2444
  237EMI    H0F 4497   2.475   0.412   3.801  0.9042  1.8006 -0.5579
  237EMI    C0N 4498   2.493   0.283   3.631 -0.1956  0.3035  0.6387
  237EMI    H0O 4499   2.440   0.364   3.582  1.4665  0.6398 -0.6783
  237EMI    H0P 4500   2.568   0.250   3.560 -0.0659  1.4805  0.2130
  237EMI    H0Q 4501   2.432   0.193   3.641  0.9119 -0.5566 -0.1022
  237EMI    N02 4502   2.667   0.415   3.754 -0.5025 -0.1437  0.0063
  237EMI    H0E 4503   2.556   0.257   3.831 -0.4887  1.6754  1.6786
  238EMI    C01 4504   4.619   0.326   2.881 -0.0427  0.4323 -0.3462
  238EMI    C04 4505   4.755   0.235   2.736 -0.7821 -0.3147 -0.1004
  238EMI    C03 4506   4.824   0.330   2.806  0.4224  0.3299 -0.0048
  238EMI    H07 4507   4.529   0.360   2.928 -0.6377  0.6720 -1.5998
  238EMI    H09 4508   4.781   0.186   2.645  2.0792 -1.5945  1.2921
  238EMI    H08 4509   4.927   0.354   2.791  0.4827  0.2575  0.2794
  238EMI    C05 4510   4.775   0.479   3.001  0.0611 -0.2793  0.7235
  238EMI    H0B 4511   4.714   0.566   2.981  2.0838  1.0172 -0.1660
  238EMI    H0C 4512   4.751   0.450   3.103 -0.9274  2.4542  1.3527
  238EMI    H0D 4513   4.877   0.512   2.996 -0.0152 -0.1225  0.2125
  238EMI    N00 4514   4.739   0.380   2.898  0.3235  0.2082  0.2881
  238EMI    C06 4515   4.518   0.155   2.731  0.4827 -0.3841 -0.4082
  238EMI    H0F 4516   4.438   0.155   2.803  0.8391  1.4496  0.0284
  238EMI    C0N 4517   4.473   0.192   2.594 -0.2233 -0.7441  0.4866
  238EMI    H0O 4518   4.415   0.111   2.550 -0.6377 -0.1702 -0.0470
  238EMI    H0P 4519   4.409   0.279   2.589 -2.1250 -2.1436 -2.2234
  238EMI    H0Q 4520   4.564   0.214   2.540 -0.8879  2.3369  0.4396
  238EMI    N02 4521   4.628   0.233   2.787 -0.0393  0.1535  0.3801
  238EMI    H0E 4522   4.555   0.053   2.726  0.1647 -0.4888 -0.6531
  239EMI    C01 4523   0.391   3.007   4.640 -0.6266 -0.1989  0.2035
  239EMI    C04 4524   0.188   3.040   4.706 -0.5802  0.1108  0.0937
  239EMI    C03 4525   0.226   2.921   4.749  0.0662 -0.6051 -0.7183
  239EMI    H07 4526   0.484   3.026   4.589 -0.1962  2.3612  1.7443
  239EMI    H09 4527   0.093   3.090   4.712 -1.4754 -1.5542  0.3399
  239EMI    H08 4528   0.166   2.852   4.805 -0.1559 -0.7003 -1.0678
  239EMI    C05 4529   0.436   2.782   4.745 -0.5445 -0.1286  0.4381
  239EMI    H0B 4530   0.368   2.699   4.737  0.2775 -0.5921 -2.8245
  239EMI    H0C 4531   0.519   2.765   4.679 -1.3712 -1.5944 -0.2684
  239EMI    H0D 4532   0.476   2.808   4.843  1.9210 -2.4946  0.1739
  239EMI    N00 4533   0.354   2.902   4.703  0.3294  0.1079  0.2679
  239EMI    C06 4534   0.283   3.221   4.562 -0.0372  0.4674 -0.9205
  239EMI    H0F 4535   0.373   3.226   4.502 -0.8042  0.7648 -2.1003
  239EMI    C0N 4536   0.158   3.225   4.483  0.5111  0.6964  0.0088
  239EMI    H0O 4537   0.069   3.231   4.544  0.3778  2.6132 -0.3086
  239EMI    H0P 4538   0.161   3.310   4.415  1.1067  0.6076 -0.0799
  239EMI    H0Q 4539   0.146   3.131   4.429 -0.1979 -0.1157  1.5307
  239EMI    N02 4540   0.294   3.095   4.634  0.7523 -0.0405 -0.6484
  239EMI    H0E 4541   0.289   3.311   4.622 -0.9361  0.4026 -0.7168
  240EMI    C01 4542   2.306   1.621   0.083  0.0602  0.3601 -0.7388
  240EMI    C04 4543   2.426   1.616  -0.095 -0.0636 -0.1756 -0.4916
  240EMI    C03 4544   2.497   1.564  -0.002  0.3480  0.0071  0.2768
  240EMI    H07 4545   2.225   1.615   0.153 -0.4089 -1.0766 -1.3482
  240EMI    H09 4546   2.456   1.633  -0.196 -0.2606  0.1827 -0.4923
  240EMI    H08 4547   2.599   1.532  -0.011  0.9710  1.4080  1.8352
  240EMI    C05 4548   2.464   1.499   0.241  0.6222 -0.1120 -0.1503
  240EMI    H0B 4549   2.489   1.395   0.224 -1.9181 -1.1089  1.4728
  240EMI    H0C 4550   2.551   1.554   0.273  0.7999 -1.0880  1.1085
  240EMI    H0D 4551   2.392   1.526   0.317  1.7690  1.8455  0.2956
  240EMI    N00 4552   2.420   1.554   0.112  0.1912 -0.0722  0.5172
  240EMI    C06 4553   2.181   1.694  -0.121 -1.0340 -0.3504  0.3752
  240EMI    H0F 4554   2.217   1.792  -0.148 -1.0622 -0.9401 -2.1023
  240EMI    C0N 4555   2.142   1.594  -0.229 -0.3327 -0.1490 -0.4562
  240EMI    H0O 4556   2.064   1.640  -0.289  0.1899  0.0416 -0.9957
  240EMI    H0P 4557   2.224   1.589  -0.300  0.4480  2.8130  0.0743
  240EMI    H0Q 4558   2.102   1.499  -0.196  0.7645 -1.1607 -1.9512
  240EMI    N02 4559   2.301   1.652  -0.044 -0.3371  0.4837  0.1727
  240EMI    H0E 4560   2.104   1.725  -0.052 -1.0973  1.4613 -0.4526
  241EMI    C01 4561   4.929   2.007   2.863 -0.2923  0.2759  0.3429
  241EMI    C04 4562   4.925   1.810   2.778 -0.0410 -0.5023 -0.5327
  241EMI    C03 4563   4.957   1.899   2.677  0.3653  0.4433 -0.4424
  241EMI    H07 4564   4.921   2.084   2.937 -3.1413  0.9210 -0.5381
  241EMI    H09 4565   4.900   1.706   2.773 -0.1219 -0.4503 -1.4244
  241EMI    H08 4566   4.966   1.881   2.572  2.1727  0.3530 -0.2998
  241EMI    C05 4567   4.977   2.152   2.673  0.4903 -0.3788 -0.2668
  241EMI    H0B 4568   4.898   2.164   2.601 -0.2388 -0.8474  0.4356
  241EMI    H0C 4569   4.951   2.221   2.753 -0.2575 -2.1141  1.0384
  241EMI    H0D 4570   5.076   2.175   2.638  0.1532  0.9706 -0.4211
  241EMI    N00 4571   4.954   2.024   2.733  0.4221 -0.2724  0.3869
  241EMI    C06 4572   4.882   1.822   3.025 -0.2492  0.1474  0.0408
  241EMI    H0F 4573   4.940   1.871   3.102  2.0655 -0.9325 -0.9112
  241EMI    C0N 4574   4.734   1.810   3.050  0.2490  0.8866 -1.1844
  241EMI    H0O 4575   4.722   1.758   3.145  1.0836  1.8378 -0.5393
  241EMI    H0P 4576   4.688   1.907   3.068  0.9569  0.5977  3.6291
  241EMI    H0Q 4577   4.680   1.754   2.975 -0.2401  1.7103 -1.4626
  241EMI    N02 4578   4.917   1.880   2.894  0.2717 -0.3956  0.5463
  241EMI    H0E 4579   4.932   1.726   3.020 -0.0413  0.2401  0.3264
  242EMI    C01 4580   1.088   0.303   0.482 -0.4179  0.4825  0.0452
  242EMI    C04 4581   0.970   0.482   0.527  0.5151  0.5606 -0.4963
  242EMI    C03 4582   1.094   0.508   0.557 -0.0419  0.3064 -0.7472
  242EMI    H07 4583   1.109   0.201   0.457 -1.7775 -0.1063  1.1400
  242EMI    H09 4584   0.884   0.541   0.546  0.2352  0.6009 -1.7752
  242EMI    H08 4585   1.139   0.594   0.601  0.2187  1.1432 -2.5739
  242EMI    C05 4586   1.303   0.374   0.585  0.3228  0.4058  0.2749
  242EMI    H0B 4587   1.373   0.438   0.534 -1.4825 -0.1332 -3.1589
  242EMI    H0C 4588   1.295   0.388   0.692 -0.4308 -1.7476  0.5408
  242EMI    H0D 4589   1.328   0.275   0.550 -1.2391  0.0867 -0.0521
  242EMI    N00 4590   1.166   0.394   0.538  0.0066 -0.1404  1.2823
  242EMI    C06 4591   0.847   0.291   0.428 -0.2766  0.2581  0.0756
  242EMI    H0F 4592   0.882   0.205   0.374  0.8215  0.4032  0.5358
  242EMI    C0N 4593   0.760   0.268   0.556  0.3350  0.5711 -0.2756
  242EMI    H0O 4594   0.749   0.367   0.598  0.9498  1.2713 -1.7005
  242EMI    H0P 4595   0.662   0.231   0.528 -0.3555  1.7160  0.5338
  242EMI    H0Q 4596   0.819   0.214   0.628  0.0103 -0.1668 -0.5552
  242EMI    N02 4597   0.970   0.354   0.472  1.0569  0.0974 -0.5444
  242EMI    H0E 4598   0.784   0.336   0.353 -2.1295 -1.8563  0.2428
  243EMI    C01 4599   2.592   4.094   0.220  0.1888  0.0169 -0.1956
  243EMI    C04 4600   2.714   4.074   0.402 -0.2521 -0.1460 -0.8881
  243EMI    C03 4601   2.633   4.182   0.415 -0.4314  0.8519 -0.6574
  243EMI    H07 4602   2.556   4.083   0.120 -0.7081  1.4138 -0.0643
  243EMI    H09 4603   2.803   4.041   0.451 -1.5751 -0.5069  1.4302
  243EMI    H08 4604   2.629   4.266   0.481  0.3503  0.1948  0.2543
  243EMI    C05 4605   2.466   4.304   0.265 -0.4609 -0.1798 -0.0672
  243EMI    H0B 4606   2.424   4.359   0.348  0.2948 -1.4981  1.2154
  243EMI    H0C 4607   2.525   4.375   0.209  1.0822 -0.8189  0.6929
  243EMI    H0D 4608   2.387   4.277   0.196 -2.1461  0.7559  1.3958
  243EMI    N00 4609   2.559   4.194   0.299 -0.1072 -0.1105  0.0232
  243EMI    C06 4610   2.741   3.903   0.217  0.3687 -0.2849  0.2197
  243EMI    H0F 4611   2.693   3.811   0.248  0.8991 -0.8518 -0.6042
  243EMI    C0N 4612   2.766   3.912   0.071  0.1445 -0.0946  0.3747
  243EMI    H0O 4613   2.817   3.829   0.024  0.0233 -0.0674  0.1961
  243EMI    H0P 4614   2.674   3.922   0.015 -0.8672  0.5724  2.0474
  243EMI    H0Q 4615   2.832   3.996   0.052 -0.4547 -0.1263 -2.1715
  243EMI    N02 4616   2.678   4.020   0.280  0.3327  0.7240 -0.1979
  243EMI    H0E 4617   2.837   3.903   0.266 -0.6105  0.0357  2.2555
  244EMI    C01 4618   4.306   1.780   0.410  0.8425  0.3663 -0.1947
  244EMI    C04 4619   4.394   1.854   0.596  1.2165 -0.7952 -0.0059
  244EMI    C03 4620   4.490   1.845   0.502  0.3409 -0.7247  0.4329
  244EMI    H07 4621   4.234   1.741   0.342  0.3266  1.1259 -0.1042
  244EMI    H09 4622   4.408   1.905   0.689 -0.6748  4.5400 -2.2023
  244EMI    H08 4623   4.591   1.876   0.508  0.6157 -1.7903  1.6860
  244EMI    C05 4624   4.510   1.780   0.257 -0.1050  0.1850  0.2638
  244EMI    H0B 4625   4.555   1.873   0.225  0.4216 -0.4780 -1.0195
  244EMI    H0C 4626   4.581   1.703   0.281 -0.5731 -0.7659 -1.2041
  244EMI    H0D 4627   4.447   1.752   0.173 -1.0649  1.6443  0.4732
  244EMI    N00 4628   4.431   1.802   0.380 -0.1841  0.0885 -0.1605
  244EMI    C06 4629   4.137   1.821   0.587 -0.0871 -0.0989 -0.1679
  244EMI    H0F 4630   4.134   1.734   0.651  2.1535  0.4012  0.6877
  244EMI    C0N 4631   4.116   1.953   0.649  0.6017 -0.2980 -0.1122
  244EMI    H0O 4632   4.142   1.956   0.754  0.2693 -2.4130  0.0783
  244EMI    H0P 4633   4.168   2.035   0.601  1.1285 -0.7364 -0.2875
  244EMI    H0Q 4634   4.010   1.977   0.640  0.8039  0.7633  0.1462
  244EMI    N02 4635   4.275   1.816   0.534  0.0698 -0.1309  0.5267
  244EMI    H0E 4636   4.058   1.820   0.513 -0.3799  1.3128  0.1045
  245EMI    C01 4637   1.999   3.394   0.170 -0.2488  0.3406  1.0199
  245EMI    C04 4638   2.191   3.305   0.219  1.0771  0.2602  0.1731
  245EMI    C03 4639   2.205   3.432   0.234  0.0839  0.0799 -0.4902
  245EMI    H07 4640   1.903   3.411   0.126  0.5570  0.5807 -0.7667
  245EMI    H09 4641   2.262   3.225   0.221 -0.5449 -1.2190  0.3003
  245EMI    H08 4642   2.292   3.489   0.260  0.1179  0.5733 -1.6164
  245EMI    C05 4643   2.066   3.638   0.214 -0.0361 -0.7875 -0.5475
  245EMI    H0B 4644   1.997   3.669   0.137 -0.9326 -1.1386  0.1130
  245EMI    H0C 4645   2.019   3.652   0.310 -1.4364  0.2138 -1.3590
  245EMI    H0D 4646   2.161   3.689   0.208  0.2762 -1.2915 -0.0093
  245EMI    N00 4647   2.084   3.491   0.202  0.2732 -0.5280 -0.4860
  245EMI    C06 4648   2.002   3.142   0.159 -0.4594  0.6169  0.2444
  245EMI    H0F 4649   2.030   3.119   0.057  2.6694  0.2865  1.0923
  245EMI    C0N 4650   2.073   3.041   0.246 -0.0000 -0.5502 -0.3838
  245EMI    H0O 4651   2.005   2.966   0.285 -0.2288  0.7587  1.9352
  245EMI    H0P 4652   2.151   2.992   0.188  0.1297 -1.8351  0.8109
  245EMI    H0Q 4653   2.134   3.077   0.328  2.4366 -1.0258 -1.8894
  245EMI    N02 4654   2.058   3.279   0.185 -0.2825 -0.3863 -0.0927
  245EMI    H0E 4655   1.895   3.137   0.175 -0.6546  0.4843 -0.9945
  246EMI    C01 4656   0.562   1.218   0.457  0.7261  0.5334  0.1189
  246EMI    C04 4657   0.556   1.011   0.526  1.4443  0.2398  0.2224
  246EMI    C03 4658   0.640   1.078   0.603  0.1889 -0.0723 -0.9610
  246EMI    H07 4659   0.555   1.311   0.404  0.3721  0.4777  0.0619
  246EMI    H09 4660   0.530   0.908   0.537 -2.8142  1.3784  3.2436
  246EMI    H08 4661   0.700   1.044   0.685 -1.2121  0.0886  0.1858
  246EMI    C05 4662   0.743   1.316   0.608 -0.1609  0.1903 -0.1419
  246EMI    H0B 4663   0.766   1.393   0.537  1.5567 -0.6082 -0.5137
  246EMI    H0C 4664   0.699   1.356   0.698  0.8095  0.5097  0.2109
  246EMI    H0D 4665   0.825   1.249   0.631 -1.0461 -1.4096 -1.4005
  246EMI    N00 4666   0.637   1.215   0.562 -0.3313 -0.5133 -0.1153
  246EMI    C06 4667   0.387   1.079   0.345 -0.7877  0.4977  0.1622
  246EMI    H0F 4668   0.313   1.019   0.397  0.1983  0.1219  1.1606
  246EMI    C0N 4669   0.324   1.203   0.286  0.9352  0.7106 -0.0976
  246EMI    H0O 4670   0.384   1.267   0.222  2.6919 -0.6890  0.0667
  246EMI    H0P 4671   0.241   1.163   0.230  0.7118  1.5318 -0.3661
  246EMI    H0Q 4672   0.279   1.263   0.364 -1.3376 -0.8468 -0.0994
  246EMI    N02 4673   0.502   1.101   0.439  0.0398 -0.7363  0.8554
  246EMI    H0E 4674   0.424   1.017   0.265  0.4703 -0.7431  1.6242
  247EMI    C01 4675   1.819   1.791   0.247 -0.4435  0.0055 -0.1386
  247EMI    C04 4676   1.638   1.794   0.368  0.4316 -0.3941 -0.0079
  247EMI    C03 4677   1.726   1.721   0.437  0.1431  0.5274  0.0432
  247EMI    H07 4678   1.872   1.791   0.154 -2.6451  1.8245 -1.5099
  247EMI    H09 4679   1.535   1.818   0.387 -0.1586  1.0356 -4.0508
  247EMI    H08 4680   1.732   1.676   0.534  0.4931 -0.2291 -0.3200
  247EMI    C05 4681   1.973   1.673   0.385 -0.7277 -0.1140  0.6988
  247EMI    H0B 4682   1.967   1.602   0.466 -1.3744 -4.4643 -2.7502
  247EMI    H0C 4683   2.013   1.622   0.298 -0.8978 -2.7017  2.0181
  247EMI    H0D 4684   2.034   1.757   0.412  0.8159 -0.6324 -0.9385
  247EMI    N00 4685   1.845   1.732   0.360 -0.2204 -0.2536 -0.4300
  247EMI    C06 4686   1.624   1.905   0.138  0.3825  0.6497  0.1605
  247EMI    H0F 4687   1.516   1.898   0.143  0.4809  0.1013  2.1150
  247EMI    C0N 4688   1.650   2.055   0.139  0.1123  0.2033 -0.0617
  247EMI    H0O 4689   1.595   2.107   0.062 -0.2292 -3.1282 -2.2992
  247EMI    H0P 4690   1.618   2.096   0.234 -0.3411 -1.8623  0.7398
  247EMI    H0Q 4691   1.754   2.066   0.109  0.3341  0.4891  0.7761
  247EMI    N02 4692   1.696   1.830   0.249 -0.2089  0.0984  0.3143
  247EMI    H0E 4693   1.655   1.853   0.048 -0.9411 -0.7559  0.4769
  248EMI    C01 4694   3.424   3.876   1.597  0.1114 -0.3866 -0.2945
  248EMI    C04 4695   3.637   3.920   1.597  0.6236  0.6106  0.6029
  248EMI    C03 4696   3.623   3.811   1.672 -0.8439  0.3069 -0.5223
  248EMI    H07 4697   3.318   3.874   1.579  0.1384  1.7104 -0.8551
  248EMI    H09 4698   3.729   3.970   1.575  0.3189 -0.0252 -2.5129
  248EMI    H08 4699   3.704   3.763   1.721  2.2256  1.8271 -3.7099
  248EMI    C05 4700   3.412   3.698   1.766 -0.2105 -0.3208 -0.1113
  248EMI    H0B 4701   3.312   3.680   1.727 -1.1514 -2.9671  3.0284
  248EMI    H0C 4702   3.458   3.600   1.763 -0.1377 -0.2724 -1.6467
  248EMI    H0D 4703   3.413   3.732   1.868  1.3466  0.1068 -0.2535
  248EMI    N00 4704   3.486   3.789   1.673 -0.3868 -0.2891 -0.7489
  248EMI    C06 4705   3.497   4.072   1.450  0.3502  0.8579 -0.3118
  248EMI    H0F 4706   3.398   4.111   1.470  0.4973  0.8361  0.4793
  248EMI    C0N 4707   3.592   4.184   1.478  0.3560 -0.8407  0.0632
  248EMI    H0O 4708   3.691   4.173   1.435 -0.3072 -0.2814 -1.6674
  248EMI    H0P 4709   3.535   4.266   1.437 -0.3437 -0.7504  1.1810
  248EMI    H0Q 4710   3.602   4.197   1.585 -2.8027 -0.3528  0.3705
  248EMI    N02 4711   3.515   3.954   1.541  0.5348 -0.0560  0.4102
  248EMI    H0E 4712   3.493   4.037   1.348 -3.2500  0.0998 -0.0509
  249EMI    C01 4713   3.536   2.081   4.620 -0.5743  0.5501 -0.2228
  249EMI    C04 4714   3.543   1.871   4.688 -0.3097  0.8186 -0.0455
  249EMI    C03 4715   3.502   1.943   4.791 -0.4704  0.6312  0.2684
  249EMI    H07 4716   3.540   2.162   4.551  0.7055 -0.5846 -1.5441
  249EMI    H09 4717   3.540   1.764   4.691 -2.3378  0.8241 -0.0238
  249EMI    H08 4718   3.457   1.925   4.887  0.0006  2.5512  0.9025
  249EMI    C05 4719   3.469   2.198   4.828 -0.5539 -0.4772  0.1008
  249EMI    H0B 4720   3.362   2.206   4.821 -0.6290 -0.8036  0.8291
  249EMI    H0C 4721   3.502   2.193   4.930 -1.0148 -1.3748  0.2159
  249EMI    H0D 4722   3.514   2.283   4.778  0.9725 -1.2714  0.0512
  249EMI    N00 4723   3.509   2.077   4.751 -0.4301  0.0321  0.0371
  249EMI    C06 4724   3.621   1.920   4.452 -0.3650 -0.0024  0.2947
  249EMI    H0F 4725   3.724   1.894   4.469  0.1803  2.5043  1.4506
  249EMI    C0N 4726   3.538   1.813   4.379 -0.3853 -0.2801  0.4890
  249EMI    H0O 4727   3.444   1.859   4.350 -0.4535  1.0264  2.6078
  249EMI    H0P 4728   3.598   1.779   4.295  0.2245 -1.3491  1.3357
  249EMI    H0Q 4729   3.521   1.725   4.439  2.8334 -0.4996  1.2804
  249EMI    N02 4730   3.577   1.958   4.585 -0.2518  0.2690 -0.4336
  249EMI    H0E 4731   3.611   1.999   4.378 -1.2068  0.6078  1.0368
  250EMI    C01 4732   2.063   0.001   4.046  0.0754 -0.9614  0.2058
  250EMI    C04 4733   2.221  -0.088   3.930 -0.1552  0.6857 -0.0964
  250EMI    C03 4734   2.110  -0.161   3.911  0.5483  0.4338 -0.0540
  250EMI    H07 4735   2.014   0.074   4.107  1.2554  0.4071 -0.4594
  250EMI    H09 4736   2.314  -0.095   3.878 -0.8182 -2.6749 -1.0590
  250EMI    H08 4737   2.091  -0.237   3.839 -0.1478  1.3770 -0.8863
  250EMI    C05 4738   1.876  -0.164   4.004 -0.3297  0.5960 -0.1545
  250EMI    H0B 4739   1.823  -0.126   4.090  0.9385  0.7593  0.5813
  250EMI    H0C 4740   1.828  -0.144   3.909  1.3694 -0.4408 -1.2979
  250EMI    H0D 4741   1.887  -0.268   4.033 -0.9408  0.7510  0.6497
  250EMI    N00 4742   2.013  -0.107   3.991 -0.3897 -0.4824 -0.1737
  250EMI    C06 4743   2.281   0.134   4.032  0.6280 -0.0770  0.0199
  250EMI    H0F 4744   2.240   0.206   4.102  0.6382  0.2584 -0.3116
  250EMI    C0N 4745   2.431   0.097   4.067  0.6976 -0.3168 -0.0425
  250EMI    H0O 4746   2.492   0.061   3.985  0.8618  0.1828 -0.1430
  250EMI    H0P 4747   2.482   0.182   4.111 -0.5326  0.4860 -0.1385
  250EMI    H0Q 4748   2.429   0.018   4.141  1.2414 -0.5035 -0.2197
  250EMI    N02 4749   2.190   0.018   4.012  0.0306 -0.3771 -0.6748
  250EMI    H0E 4750   2.279   0.184   3.936  1.3723  1.3804  0.7238
  251EMI    C01 4751   2.125   4.622   1.497 -0.0158 -0.6680  0.4502
  251EMI    C04 4752   2.330   4.640   1.558 -0.0614 -0.7822 -0.0807
  251EMI    C03 4753   2.260   4.581   1.659 -0.2304  0.1325  0.9808
  251EMI    H07 4754   2.042   4.634   1.430  1.0951 -0.4699 -0.9525
  251EMI    H09 4755   2.435   4.660   1.552 -0.3531  1.2112  0.8336
  251EMI    H08 4756   2.306   4.551   1.751  0.7294  0.9686  0.7957
  251EMI    C05 4757   2.020   4.509   1.697 -0.1996  0.1695  0.6397
  251EMI    H0B 4758   2.010   4.413   1.648  3.0645  0.0739 -0.0607
  251EMI    H0C 4759   2.038   4.503   1.803  1.0018 -1.0267  0.3900
  251EMI    H0D 4760   1.925   4.558   1.678  0.3842  0.5242 -1.7724
  251EMI    N00 4761   2.128   4.577   1.621  0.5124 -0.5251 -0.1255
  251EMI    C06 4762   2.273   4.720   1.332  0.0716 -1.1379 -0.4545
  251EMI    H0F 4763   2.185   4.751   1.277 -0.1376 -0.4813  0.2311
  251EMI    C0N 4764   2.367   4.838   1.329  0.2250 -0.3623  0.0953
  251EMI    H0O 4765   2.446   4.846   1.403  0.0905  2.0609  0.0715
  251EMI    H0P 4766   2.400   4.840   1.226  1.4353  0.7154  0.4710
  251EMI    H0Q 4767   2.307   4.929   1.324 -0.6982 -0.9224  0.7282
  251EMI    N02 4768   2.238   4.663   1.457 -0.2353  0.5647 -0.1238
  251EMI    H0E 4769   2.325   4.648   1.270  2.8925 -0.0549  0.5089
  252EMI    C01 4770   2.553   2.082   1.570 -0.3299  0.0241 -0.2904
  252EMI    C04 4771   2.533   2.155   1.780  0.7318  0.3355  0.3509
  252EMI    C03 4772   2.665   2.130   1.751  0.5083  0.2714  0.2398
  252EMI    H07 4773   2.526   2.051   1.471  0.6800 -0.8644 -0.3015
  252EMI    H09 4774   2.470   2.154   1.866 -1.3826  3.0850 -1.0109
  252EMI    H08 4775   2.740   2.124   1.827  1.4916 -1.9272 -0.8094
  252EMI    C05 4776   2.800   2.096   1.530  0.5047  0.2955 -0.6013
  252EMI    H0B 4777   2.797   2.177   1.460  2.5461 -0.6023 -1.8098
  252EMI    H0C 4778   2.882   2.089   1.600 -0.0635 -1.1397 -0.0185
  252EMI    H0D 4779   2.812   2.005   1.473 -1.0329 -0.4069  0.1209
  252EMI    N00 4780   2.676   2.103   1.617 -0.1711  0.9265 -0.1565
  252EMI    C06 4781   2.318   2.131   1.659 -0.3333 -0.2269 -0.0475
  252EMI    H0F 4782   2.285   2.226   1.697 -0.4344 -0.5566  0.6899
  252EMI    C0N 4783   2.256   2.084   1.528  0.3134 -0.6069 -0.5551
  252EMI    H0O 4784   2.302   2.144   1.451  0.8052 -0.4074 -0.1127
  252EMI    H0P 4785   2.279   1.978   1.528 -2.6189 -1.3295 -0.3876
  252EMI    H0Q 4786   2.148   2.079   1.531  0.1944  1.5891  0.7294
  252EMI    N02 4787   2.468   2.132   1.660 -0.0471  0.7093 -0.0727
  252EMI    H0E 4788   2.293   2.052   1.728 -0.8339 -0.1284 -0.1113
  253EMI    C01 4789   0.805   2.185   4.313  0.0130 -0.2467  0.3562
  253EMI    C04 4790   0.709   2.069   4.156 -0.5218  0.5056 -0.3817
  253EMI    C03 4791   0.625   2.161   4.203 -0.3173  0.3644  0.5954
  253EMI    H07 4792   0.876   2.229   4.380  0.1355 -0.3246  0.2796
  253EMI    H09 4793   0.702   1.994   4.081 -0.4655 -0.5244  0.6185
  253EMI    H08 4794   0.532   2.191   4.161  0.0424 -0.4847 -0.9023
  253EMI    C05 4795   0.627   2.346   4.378 -0.4891 -0.5737 -0.2292
  253EMI    H0B 4796   0.562   2.399   4.310  0.0191 -1.7688 -1.7143
  253EMI    H0C 4797   0.576   2.306   4.464  1.6687 -0.2531  1.2711
  253EMI    H0D 4798   0.704   2.410   4.418 -1.7627  0.1056  1.2123
  253EMI    N00 4799   0.681   2.232   4.304  0.0719  0.2919 -0.7954
  253EMI    C06 4800   0.947   2.014   4.201  0.5786  0.0129  0.3166
  253EMI    H0F 4801   0.932   1.907   4.205  0.7270 -0.0458 -0.5285
  253EMI    C0N 4802   1.009   2.055   4.066  0.4550  0.2403  0.1842
  253EMI    H0O 4803   0.972   1.985   3.991 -1.0389  1.0922  0.0956
  253EMI    H0P 4804   0.985   2.159   4.045  0.5096  0.4485  1.1448
  253EMI    H0Q 4805   1.114   2.047   4.091  0.8930  1.2004 -1.2005
  253EMI    N02 4806   0.821   2.080   4.233  0.3453  0.3536  0.1423
  253EMI    H0E 4807   1.016   2.031   4.283  1.0092  0.1354 -0.0618
  254EMI    C01 4808   2.154   1.053   3.405  0.5640 -0.5612 -0.0757
  254EMI    C04 4809   2.151   0.888   3.262  0.1512  0.2165  0.4440
  254EMI    C03 4810   2.256   0.871   3.347  0.5299  0.4883  0.1490
  254EMI    H07 4811   2.125   1.139   3.462 -0.3819 -0.6206 -0.4555
  254EMI    H09 4812   2.112   0.827   3.184  2.5773 -0.8086 -0.0555
  254EMI    H08 4813   2.322   0.788   3.353 -0.9171 -0.7078  0.0824
  254EMI    C05 4814   2.358   0.980   3.547 -0.3244  0.3933 -0.3995
  254EMI    H0B 4815   2.343   1.074   3.600 -3.7189  0.7578 -1.7351
  254EMI    H0C 4816   2.331   0.905   3.620  0.2546  0.8327  0.2821
  254EMI    H0D 4817   2.460   0.971   3.514  0.3590  1.9780  1.0812
  254EMI    N00 4818   2.259   0.978   3.435 -0.6400  0.0080  0.4980
  254EMI    C06 4819   1.969   1.061   3.234  0.0809 -0.5371  0.5059
  254EMI    H0F 4820   1.881   1.030   3.287  0.2433  0.6173  1.5083
  254EMI    C0N 4821   1.967   1.213   3.208 -0.3172  0.2183  1.0965
  254EMI    H0O 4822   1.955   1.262   3.304  3.7697 -3.7687  4.0378
  254EMI    H0P 4823   2.062   1.245   3.168 -0.6556 -0.4459 -0.3189
  254EMI    H0Q 4824   1.893   1.237   3.132  0.9967  0.2145 -0.2277
  254EMI    N02 4825   2.091   1.006   3.300 -0.4691  0.2888  0.0193
  254EMI    H0E 4826   1.963   1.003   3.144  0.4750  1.4902 -0.8924
  255EMI    C01 4827   0.049   1.135   1.504  0.0380 -1.0127  0.1043
  255EMI    C04 4828   0.001   1.122   1.722 -0.1183 -0.9781 -0.6025
  255EMI    C03 4829  -0.113   1.136   1.650  0.5393 -0.1775  0.9472
  255EMI    H07 4830   0.101   1.125   1.411  0.0831 -0.6923  0.0968
  255EMI    H09 4831   0.022   1.111   1.826 -2.1355 -2.2692 -0.2745
  255EMI    H08 4832  -0.217   1.138   1.671  0.3432  1.8539  0.0177
  255EMI    C05 4833  -0.177   1.201   1.416 -0.4323  0.4089  0.2261
  255EMI    H0B 4834  -0.231   1.116   1.375  2.3713 -1.7249  0.6654
  255EMI    H0C 4835  -0.251   1.272   1.452  0.8336  0.5087  2.8859
  255EMI    H0D 4836  -0.125   1.247   1.334  0.8008  0.8066  1.2033
  255EMI    N00 4837  -0.082   1.154   1.518  0.0704 -0.4248  0.4635
  255EMI    C06 4838   0.239   1.069   1.646 -0.1760  0.5887 -0.6619
  255EMI    H0F 4839   0.298   1.141   1.591  0.9182 -1.1034 -1.8218
  255EMI    C0N 4840   0.301   1.088   1.783  0.2938 -0.1841 -0.3074
  255EMI    H0O 4841   0.249   1.022   1.850 -0.1677  0.1350 -0.3466
  255EMI    H0P 4842   0.401   1.047   1.777  0.4759  0.1659  0.2965
  255EMI    H0Q 4843   0.315   1.191   1.813  1.7909 -0.1781 -0.9230
  255EMI    N02 4844   0.100   1.109   1.621  0.3819  0.6105  0.5490
  255EMI    H0E 4845   0.260   0.971   1.606 -1.1524  0.3409 -0.5863
  256EMI    C01 4846   4.512   1.116   0.347 -0.0437 -0.3030  0.1654
  256EMI    C04 4847   4.544   1.094   0.131  0.0494 -0.6123 -0.1156
  256EMI    C03 4848   4.467   0.988   0.173 -0.1016 -0.0344 -0.5669
  256EMI    H07 4849   4.513   1.155   0.447  1.0128 -1.0740  0.4687
  256EMI    H09 4850   4.581   1.127   0.036  3.0054  0.7139  1.3505
  256EMI    H08 4851   4.430   0.905   0.117  0.0570  0.5188 -1.5144
  256EMI    C05 4852   4.364   0.921   0.398 -0.3047 -0.5121  0.5334
  256EMI    H0B 4853   4.320   0.977   0.480 -1.3653 -1.7218  0.8307
  256EMI    H0C 4854   4.280   0.881   0.343 -2.1197  1.5151  1.6226
  256EMI    H0D 4855   4.422   0.839   0.438  0.7390 -1.1921 -2.1608
  256EMI    N00 4856   4.446   1.004   0.307 -0.1788 -0.0302 -0.1205
  256EMI    C06 4857   4.652   1.298   0.242 -1.0630  0.2698  0.1525
  256EMI    H0F 4858   4.654   1.351   0.336  0.8424  0.7790 -0.1205
  256EMI    C0N 4859   4.801   1.265   0.220  0.5281 -0.0650  0.8863
  256EMI    H0O 4860   4.827   1.177   0.277  2.3016  0.6337  1.2081
  256EMI    H0P 4861   4.816   1.235   0.117 -0.4131  0.0671  0.7028
  256EMI    H0Q 4862   4.867   1.345   0.250 -0.3362  0.2042  2.1261
  256EMI    N02 4863   4.572   1.171   0.244  0.2852 -0.3389 -0.0708
  256EMI    H0E 4864   4.606   1.369   0.174 -0.2907 -1.0843 -1.8890
  257EMI    C01 4865   2.055   1.801   2.853 -0.3248  0.4347 -0.4011
  257EMI    C04 4866   1.880   1.861   2.753 -0.0126  0.0556 -0.2981
  257EMI    C03 4867   1.920   1.964   2.820 -0.6543  0.2916  0.4294
  257EMI    H07 4868   2.133   1.739   2.892 -1.3970 -1.1997 -0.7234
  257EMI    H09 4869   1.789   1.850   2.698 -0.5935 -0.6989  0.7781
  257EMI    H08 4870   1.882   2.063   2.829  0.8511  0.9741 -0.2154
  257EMI    C05 4871   2.115   1.999   2.991 -0.2588  1.0191  0.0408
  257EMI    H0B 4872   2.072   2.097   3.008 -0.6874  0.7487  0.5472
  257EMI    H0C 4873   2.136   1.948   3.084  2.7815 -1.5410 -1.8252
  257EMI    H0D 4874   2.211   2.019   2.944  0.2839  0.4746  0.8784
  257EMI    N00 4875   2.029   1.917   2.893 -0.6122 -0.1609 -0.4100
  257EMI    C06 4876   1.949   1.627   2.717  0.4244  0.3249  0.2480
  257EMI    H0F 4877   2.027   1.567   2.762  0.7399  1.6387  1.5044
  257EMI    C0N 4878   1.813   1.572   2.774  1.0437 -0.3192 -0.2180
  257EMI    H0O 4879   1.799   1.597   2.878  0.8039 -0.8720 -0.1102
  257EMI    H0P 4880   1.727   1.615   2.724  0.0519 -0.0741  1.6180
  257EMI    H0Q 4881   1.785   1.468   2.762  0.3110 -0.2454  0.8170
  257EMI    N02 4882   1.970   1.759   2.766 -0.1046  1.0329  0.2284
  257EMI    H0E 4883   1.970   1.625   2.611  1.7165  0.1919  0.4906
  258EMI    C01 4884   2.868   0.983   4.202  0.5736  0.2102  0.4570
  258EMI    C04 4885   2.972   0.799   4.194  0.0861 -0.3079  0.7906
  258EMI    C03 4886   2.872   0.778   4.276  0.1431  0.1480 -0.4872
  258EMI    H07 4887   2.836   1.081   4.173 -0.2985 -0.3906 -0.7123
  258EMI    H09 4888   3.050   0.735   4.158  0.3947  0.5001 -0.0132
  258EMI    H08 4889   2.834   0.690   4.323 -0.3261  0.4406 -0.2995
  258EMI    C05 4890   2.662   0.911   4.305  0.0294  0.4756  0.1641
  258EMI    H0B 4891   2.667   0.998   4.370  1.1992  0.1465  0.5409
  258EMI    H0C 4892   2.586   0.936   4.233 -0.6297  1.5911  1.1951
  258EMI    H0D 4893   2.642   0.826   4.368  1.5179  1.4312  2.0600
  258EMI    N00 4894   2.799   0.896   4.266 -0.0503 -0.2897 -0.1211
  258EMI    C06 4895   3.063   0.992   4.045 -0.0982  0.3953 -0.6660
  258EMI    H0F 4896   3.032   0.998   3.942  0.7168  1.9946 -0.8545
  258EMI    C0N 4897   3.135   1.121   4.093 -0.4145  0.1574  0.3483
  258EMI    H0O 4898   3.178   1.105   4.191 -2.4506  0.7441  1.3831
  258EMI    H0P 4899   3.221   1.132   4.027  0.5246 -1.5889  1.2145
  258EMI    H0Q 4900   3.069   1.207   4.085  0.1747  0.4167 -3.2032
  258EMI    N02 4901   2.975   0.932   4.152  0.0753  0.0944  0.2530
  258EMI    H0E 4902   3.147   0.924   4.047  0.3765  0.9190 -1.9376
  259EMI    C01 4903   4.545   1.594   0.810 -1.0745  0.3569 -0.0535
  259EMI    C04 4904   4.331   1.604   0.848 -0.2585  0.1444  0.3533
  259EMI    C03 4905   4.357   1.524   0.743 -0.0257 -0.3163  0.0923
  259EMI    H07 4906   4.644   1.633   0.801 -1.3009  1.5501  1.9611
  259EMI    H09 4907   4.240   1.638   0.891  0.1008  1.8059 -0.1243
  259EMI    H08 4908   4.297   1.469   0.673 -0.0981  1.0711 -0.9830
  259EMI    C05 4909   4.560   1.476   0.594 -0.4829 -0.4767 -0.6735
  259EMI    H0B 4910   4.666   1.459   0.608 -0.2944  0.1341 -1.3197
  259EMI    H0C 4911   4.506   1.392   0.552 -2.6006  1.6962 -2.6258
  259EMI    H0D 4912   4.535   1.558   0.529  1.8661  0.6277 -0.2960
  259EMI    N00 4913   4.492   1.517   0.721  0.0162  0.3788 -0.2614
  259EMI    C06 4914   4.467   1.755   1.000 -0.0989  1.1632 -0.1810
  259EMI    H0F 4915   4.391   1.832   0.993 -1.3460 -0.0947 -1.0002
  259EMI    C0N 4916   4.452   1.706   1.142 -0.0132 -0.1785  0.0334
  259EMI    H0O 4917   4.535   1.660   1.193 -1.3639 -1.0517  1.5403
  259EMI    H0P 4918   4.437   1.796   1.201  1.3064 -0.4591  0.8329
  259EMI    H0Q 4919   4.369   1.639   1.161  0.1921 -0.1415  1.0917
  259EMI    N02 4920   4.456   1.644   0.894 -0.7265 -0.2250 -0.0744
  259EMI    H0E 4921   4.561   1.806   0.985 -0.1398  1.2144 -0.2609
  260EMI    C01 4922   4.103   0.253   1.603 -0.0020  0.0064  0.0299
  260EMI    C04 4923   3.986   0.081   1.658  0.8633  0.1709  0.2722
  260EMI    C03 4924   3.900   0.189   1.638 -0.5202  0.5750 -0.1072
  260EMI    H07 4925   4.190   0.313   1.587 -0.4203  0.5777 -0.1576
  260EMI    H09 4926   3.956  -0.017   1.690  0.2366 -0.7928 -2.9091
  260EMI    H08 4927   3.795   0.196   1.658 -0.8376  0.9841 -1.7281
  260EMI    C05 4928   3.928   0.431   1.581 -0.5808  0.6397 -0.2960
  260EMI    H0B 4929   3.852   0.439   1.657 -0.8533 -1.6787 -0.2467
  260EMI    H0C 4930   4.014   0.495   1.592 -1.3006  1.2665  2.6843
  260EMI    H0D 4931   3.871   0.446   1.491 -2.4447  0.3541  0.7730
  260EMI    N00 4932   3.977   0.294   1.602  0.2158  0.9559  0.1471
  260EMI    C06 4933   4.234   0.042   1.624 -0.0111  0.0038 -0.3127
  260EMI    H0F 4934   4.322   0.095   1.659 -0.8659  1.1859  0.0827
  260EMI    C0N 4935   4.229  -0.068   1.729  0.1500 -0.0668  0.8278
  260EMI    H0O 4936   4.211  -0.034   1.830 -2.6082 -2.3023  1.2354
  260EMI    H0P 4937   4.159  -0.149   1.708 -0.3553 -0.4429  3.5450
  260EMI    H0Q 4938   4.332  -0.101   1.731  0.9460  1.9617 -1.5553
  260EMI    N02 4939   4.110   0.120   1.618  0.0029 -0.2069 -0.6494
  260EMI    H0E 4940   4.245  -0.016   1.533 -2.2518  0.3647 -0.8718
  261EMI    C01 4941   4.505   4.344   1.147  0.2464 -0.5834 -0.1215
  261EMI    C04 4942   4.560   4.506   1.015 -0.3495 -0.0990  0.0198
  261EMI    C03 4943   4.620   4.397   0.966 -0.1213 -0.2816 -0.9048
  261EMI    H07 4944   4.460   4.296   1.231  2.9047  0.4877  2.0931
  261EMI    H09 4945   4.556   4.607   0.980 -0.7242  0.2653  1.0988
  261EMI    H08 4946   4.672   4.369   0.877  1.0917 -3.2347  0.6022
  261EMI    C05 4947   4.637   4.156   1.030 -0.6539 -0.4577  0.1331
  261EMI    H0B 4948   4.670   4.102   1.118 -2.8989 -4.4188 -1.1834
  261EMI    H0C 4949   4.564   4.102   0.971 -0.4948 -0.1486 -0.3517
  261EMI    H0D 4950   4.723   4.176   0.967  0.7068 -1.0848  1.7086
  261EMI    N00 4951   4.588   4.296   1.054  0.3536  0.2826  0.7561
  261EMI    C06 4952   4.406   4.558   1.210  0.1512 -0.0966 -0.9371
  261EMI    H0F 4953   4.373   4.641   1.149 -1.4988 -0.2178 -0.2842
  261EMI    C0N 4954   4.279   4.490   1.267 -0.3545 -0.1662 -0.2115
  261EMI    H0O 4955   4.301   4.437   1.359 -0.9823  1.5471  0.9822
  261EMI    H0P 4956   4.211   4.567   1.301  0.8500  1.7536 -1.9006
  261EMI    H0Q 4957   4.226   4.424   1.200 -0.2198 -0.6851  0.1822
  261EMI    N02 4958   4.489   4.471   1.127 -0.1742 -0.0611 -0.5670
  261EMI    H0E 4959   4.462   4.601   1.293  0.9720  2.0208 -2.4966
  262EMI    C01 4960   2.974   4.410   2.687  0.4430  0.5104 -0.8959
  262EMI    C04 4961   2.812   4.341   2.560  0.1493  0.1843  0.4241
  262EMI    C03 4962   2.912   4.381   2.479 -0.3048 -0.8197  0.5157
  262EMI    H07 4963   3.033   4.431   2.774  0.5867 -0.2995 -0.7920
  262EMI    H09 4964   2.714   4.306   2.534  0.2779 -0.4882  0.8027
  262EMI    H08 4965   2.925   4.370   2.374  1.5664 -0.9581  0.7279
  262EMI    C05 4966   3.142   4.494   2.523 -0.0464 -0.4650 -0.1588
  262EMI    H0B 4967   3.151   4.584   2.582 -0.3681  0.0178 -0.8352
  262EMI    H0C 4968   3.220   4.429   2.561 -1.0782 -2.4276 -1.2650
  262EMI    H0D 4969   3.159   4.502   2.417  1.3955 -1.2603 -0.0163
  262EMI    N00 4970   3.014   4.431   2.564 -0.1385 -0.6935  0.1743
  262EMI    C06 4971   2.766   4.343   2.806  0.3903 -0.2371 -0.8306
  262EMI    H0F 4972   2.665   4.379   2.793  0.3087 -1.0739 -2.9429
  262EMI    C0N 4973   2.774   4.195   2.825  0.0326 -0.1271  0.1631
  262EMI    H0O 4974   2.876   4.166   2.850  0.3030 -1.2408 -1.9768
  262EMI    H0P 4975   2.722   4.185   2.919 -0.3641  0.8706  0.0643
  262EMI    H0Q 4976   2.733   4.129   2.749  1.3570 -2.0649  1.0549
  262EMI    N02 4977   2.848   4.370   2.686 -0.4169  0.2648 -0.3639
  262EMI    H0E 4978   2.810   4.400   2.887 -0.1844  0.7595 -1.1982
  263EMI    C01 4979   5.003   4.163   1.651  0.5126  0.2933 -0.2058
  263EMI    C04 4980   4.875   4.105   1.819  0.4293  0.2211 -0.2038
  263EMI    C03 4981   4.966   4.006   1.798 -0.0931 -0.3379 -0.7111
  263EMI    H07 4982   5.045   4.208   1.564  0.4865 -1.2980 -1.0946
  263EMI    H09 4983   4.796   4.099   1.890 -0.5632 -0.2764 -1.3098
  263EMI    H08 4984   4.984   3.920   1.860 -0.1341 -0.0411 -0.2796
  263EMI    C05 4985   5.152   3.956   1.644  0.0028 -0.2599 -0.5501
  263EMI    H0B 4986   5.112   3.863   1.606  0.0946 -0.3097 -0.5247
  263EMI    H0C 4987   5.201   4.008   1.563  0.2831 -0.3128 -0.4172
  263EMI    H0D 4988   5.217   3.937   1.728 -0.1631  2.1390  0.1798
  263EMI    N00 4989   5.041   4.040   1.692  0.3585 -0.1882 -0.4803
  263EMI    C06 4990   4.813   4.323   1.704  0.1931 -0.1218 -0.6043
  263EMI    H0F 4991   4.712   4.309   1.668 -1.2892  1.6075  2.5652
  263EMI    C0N 4992   4.802   4.401   1.836 -0.2214  0.2301  0.0126
  263EMI    H0O 4993   4.898   4.401   1.886  0.9352  1.5949 -2.0050
  263EMI    H0P 4994   4.786   4.507   1.819 -1.0550  0.0652 -0.2906
  263EMI    H0Q 4995   4.729   4.357   1.903 -0.2294  0.7049  0.3249
  263EMI    N02 4996   4.893   4.199   1.720 -0.0203  0.3811  0.0095
  263EMI    H0E 4997   4.857   4.388   1.629 -2.5731  0.6128 -1.6973
  264EMI    C01 4998   4.918   0.598   1.433  0.0776 -0.3336  0.1233
  264EMI    C04 4999   4.730   0.501   1.488  0.7235  0.3845  0.0340
  264EMI    C03 5000   4.780   0.437   1.382  0.5062 -0.1873 -0.1950
  264EMI    H07 5001   4.994   0.673   1.433  0.0968 -0.2769  2.3107
  264EMI    H09 5002   4.641   0.487   1.546  0.5661 -0.5752 -0.4274
  264EMI    H08 5003   4.745   0.354   1.324  0.6342  0.4192 -1.1665
  264EMI    C05 5004   4.965   0.465   1.225 -0.2505 -0.4963  0.2554
  264EMI    H0B 5005   4.913   0.393   1.164  0.1010 -0.3314 -0.2518
  264EMI    H0C 5006   4.988   0.553   1.166  2.5054 -2.3745 -1.7351
  264EMI    H0D 5007   5.059   0.423   1.256 -0.4965 -1.5975 -0.4361
  264EMI    N00 5008   4.890   0.507   1.343  0.4840  0.1839  0.4093
  264EMI    C06 5009   4.791   0.727   1.597  0.0359 -0.0084  0.1536
  264EMI    H0F 5010   4.697   0.772   1.570  0.9250  1.3090 -0.8482
  264EMI    C0N 5011   4.806   0.699   1.744  0.1557 -0.2831 -0.1122
  264EMI    H0O 5012   4.742   0.618   1.778  0.3238 -0.9036 -1.2268
  264EMI    H0P 5013   4.907   0.662   1.760  0.5904  0.5852 -0.8082
  264EMI    H0Q 5014   4.799   0.785   1.810  0.3851 -0.3265 -0.0308
  264EMI    N02 5015   4.812   0.610   1.509 -0.4069 -0.0887 -0.1199
  264EMI    H0E 5016   4.872   0.793   1.572 -0.3761  0.7641  0.8164
  265EMI    C01 5017   2.771   2.840   4.960  0.7082  0.4965 -0.0148
  265EMI    C04 5018   2.865   2.960   5.113  0.4201 -0.3292  0.0727
  265EMI    C03 5019   2.800   3.040   5.031  0.2006  0.4582 -0.6863
  265EMI    H07 5020   2.730   2.754   4.911  0.6922 -0.0913  1.0064
  265EMI    H09 5021   2.922   2.977   5.201  1.3485 -1.7335 -0.2068
  265EMI    H08 5022   2.788   3.146   5.034  0.5853  0.4755  1.2364
  265EMI    C05 5023   2.661   3.013   4.822  0.0628  0.4557 -0.4346
  265EMI    H0B 5024   2.624   3.113   4.843 -1.7004  0.1527 -1.8504
  265EMI    H0C 5025   2.730   3.022   4.739 -0.1622 -0.4466 -0.7237
  265EMI    H0D 5026   2.584   2.950   4.781  2.8342 -2.8844 -0.9633
  265EMI    N00 5027   2.731   2.964   4.939 -0.0134 -0.5117  0.4443
  265EMI    C06 5028   2.910   2.713   5.123  0.1089  0.5152 -0.1339
  265EMI    H0F 5029   2.860   2.624   5.089  1.1416 -0.2630  0.3187
  265EMI    C0N 5030   3.060   2.695   5.101  1.0124 -0.1221 -0.5910
  265EMI    H0O 5031   3.111   2.636   5.177 -0.4929  0.1537  0.6707
  265EMI    H0P 5032   3.090   2.636   5.015 -0.2267  1.6755 -2.3501
  265EMI    H0Q 5033   3.108   2.792   5.103  0.4219  0.1642  0.0214
  265EMI    N02 5034   2.857   2.834   5.058 -0.1161 -0.2864 -0.4027
  265EMI    H0E 5035   2.886   2.721   5.228 -1.7412  0.7156 -0.5416
  266EMI    C01 5036   4.676   2.962   1.651  0.3039 -0.7364 -0.0387
  266EMI    C04 5037   4.587   3.126   1.540  0.1091  0.0831 -0.2422
  266EMI    C03 5038   4.660   3.177   1.643 -0.5611  0.5766  0.8751
  266EMI    H07 5039   4.688   2.860   1.682 -0.0045 -0.8774 -0.3884
  266EMI    H09 5040   4.538   3.189   1.470 -0.8491  1.1618  1.3341
  266EMI    H08 5041   4.688   3.274   1.677  1.1306 -0.0400  1.3297
  266EMI    C05 5042   4.808   3.084   1.824  0.1397  0.0761 -0.5213
  266EMI    H0B 5043   4.826   2.987   1.867  2.5156  0.5049 -0.4279
  266EMI    H0C 5044   4.905   3.122   1.797  0.1626  0.0138 -0.5267
  266EMI    H0D 5045   4.761   3.144   1.901  1.7763  0.0662  0.5324
  266EMI    N00 5046   4.716   3.070   1.707 -0.4721 -0.0337 -0.3163
  266EMI    C06 5047   4.524   2.902   1.466 -0.0625  0.1131  0.4512
  266EMI    H0F 5048   4.440   2.955   1.424  0.6109  0.7270 -0.1566
  266EMI    C0N 5049   4.606   2.845   1.347  0.6252 -0.0911 -0.0608
  266EMI    H0O 5050   4.544   2.795   1.275  3.0966 -2.2058 -0.8662
  266EMI    H0P 5051   4.661   2.922   1.294 -0.2662  2.4827  2.4867
  266EMI    H0Q 5052   4.678   2.779   1.394 -0.1135  0.6953  2.3460
  266EMI    N02 5053   4.591   2.989   1.553 -0.9647 -0.0091  0.7569
  266EMI    H0E 5054   4.488   2.820   1.526  0.1161 -0.1884  0.1488
  267EMI    C01 5055   0.044   0.546   3.554  0.2835 -0.2397  0.5671
  267EMI    C04 5056   0.114   0.708   3.675  0.0421  0.4332  0.5990
  267EMI    C03 5057   0.055   0.620   3.754  0.8955 -0.1523 -0.4477
  267EMI    H07 5058   0.031   0.482   3.469 -1.5714  1.6768 -0.6813
  267EMI    H09 5059   0.159   0.804   3.687  0.0042  0.5646 -0.1947
  267EMI    H08 5060   0.037   0.630   3.859 -1.0306 -1.6326 -0.5712
  267EMI    C05 5061  -0.002   0.377   3.727 -0.0939  0.2304  0.0187
  267EMI    H0B 5062  -0.035   0.388   3.830  1.0484 -0.4489  0.4815
  267EMI    H0C 5063  -0.084   0.328   3.677  0.1400  1.1577 -1.3047
  267EMI    H0D 5064   0.095   0.330   3.723  0.3574  1.0272  1.0500
  267EMI    N00 5065   0.017   0.510   3.677 -0.1484 -0.5949  0.6967
  267EMI    C06 5066   0.146   0.726   3.415 -0.0821  0.6699 -0.3258
  267EMI    H0F 5067   0.083   0.812   3.398  0.3853  0.7397 -1.7967
  267EMI    C0N 5068   0.289   0.770   3.410  0.1107  0.7880 -0.3419
  267EMI    H0O 5069   0.311   0.852   3.477 -2.5011  0.6627  0.7736
  267EMI    H0P 5070   0.362   0.693   3.434 -2.4319 -1.4534  0.7614
  267EMI    H0Q 5071   0.303   0.815   3.312 -0.5838  2.2684  0.2209
  267EMI    N02 5072   0.095   0.667   3.540  0.0561 -0.5304 -0.1217
  267EMI    H0E 5073   0.126   0.652   3.339  0.5492  0.2044 -0.0445
  268EMI    C01 5074   2.388   2.579   2.426 -0.2829  0.5060 -0.0415
  268EMI    C04 5075   2.282   2.769   2.466  0.6461  0.1882 -0.3670
  268EMI    C03 5076   2.405   2.780   2.516 -0.4389  0.4378  0.0780
  268EMI    H07 5077   2.405   2.474   2.409 -0.5965  0.2912  0.8852
  268EMI    H09 5078   2.201   2.838   2.472  0.0290 -0.5380 -0.2439
  268EMI    H08 5079   2.452   2.862   2.567 -2.2722  0.7138  1.4389
  268EMI    C05 5080   2.614   2.631   2.494 -0.2394 -0.0910 -0.1931
  268EMI    H0B 5081   2.658   2.704   2.426 -1.3683  1.4418  0.6662
  268EMI    H0C 5082   2.645   2.637   2.597  0.8681  1.0011 -0.5543
  268EMI    H0D 5083   2.629   2.531   2.455 -1.1218 -0.4862  0.4649
  268EMI    N00 5084   2.475   2.658   2.482  0.5308 -0.1791  0.3320
  268EMI    C06 5085   2.152   2.589   2.344  0.1332  0.2103 -0.9127
  268EMI    H0F 5086   2.073   2.571   2.415  1.5297 -3.8620 -0.1409
  268EMI    C0N 5087   2.101   2.678   2.230  0.2752  0.2009 -0.0869
  268EMI    H0O 5088   2.185   2.702   2.164  0.5963 -1.2545 -0.2400
  268EMI    H0P 5089   2.021   2.619   2.187 -0.7543  1.4705  0.0308
  268EMI    H0Q 5090   2.064   2.774   2.266  1.9581  0.7629  0.2438
  268EMI    N02 5091   2.273   2.639   2.415  0.3092 -0.5863  0.9012
  268EMI    H0E 5092   2.177   2.498   2.292 -1.3088  0.2866 -1.7983
  269EMI    C01 5093   2.699   4.648   3.522  0.0802 -0.1971 -0.5654
  269EMI    C04 5094   2.836   4.480   3.548  0.3592 -0.7827 -0.1152
  269EMI    C03 5095   2.716   4.434   3.579  0.7641 -0.5246 -0.3768
  269EMI    H07 5096   2.672   4.744   3.482  0.4124  0.5720  0.9705
  269EMI    H09 5097   2.935   4.441   3.539 -0.2917 -2.2613 -1.2968
  269EMI    H08 5098   2.685   4.339   3.619  1.0336 -0.4308  0.0612
  269EMI    C05 5099   2.482   4.527   3.554 -0.1524  0.0495 -0.0242
  269EMI    H0B 5100   2.465   4.420   3.551  0.3077 -0.0057 -1.6774
  269EMI    H0C 5101   2.434   4.576   3.638  0.5037  0.0105  0.3796
  269EMI    H0D 5102   2.436   4.562   3.463 -1.0210 -0.8074  0.0618
  269EMI    N00 5103   2.625   4.539   3.558  0.0773  0.1443  0.0305
  269EMI    C06 5104   2.945   4.698   3.505  0.1274 -0.9169  0.0171
  269EMI    H0F 5105   3.016   4.639   3.449 -0.2943 -1.1753 -0.2526
  269EMI    C0N 5106   2.920   4.823   3.427 -0.7892 -0.0568  0.3108
  269EMI    H0O 5107   2.848   4.882   3.483 -0.5305  0.3141  0.2537
  269EMI    H0P 5108   3.012   4.877   3.409  0.4557 -2.1340  0.1411
  269EMI    H0Q 5109   2.874   4.793   3.334 -0.1280 -3.4120  0.9180
  269EMI    N02 5110   2.826   4.618   3.525  0.9421 -0.4318 -0.8153
  269EMI    H0E 5111   2.995   4.723   3.598 -0.3506  2.9861 -0.6121
  270EMI    C01 5112   4.341   2.014   2.197  0.0468 -0.6165  0.5920
  270EMI    C04 5113   4.302   1.801   2.201  0.1066 -0.0933 -0.4164
  270EMI    C03 5114   4.419   1.817   2.258  0.2169 -0.7355 -0.9780
  270EMI    H07 5115   4.329   2.117   2.172 -1.4092 -1.3057 -1.9174
  270EMI    H09 5116   4.244   1.712   2.188 -0.9606  0.3794  0.8798
  270EMI    H08 5117   4.487   1.744   2.297 -0.8589 -1.4222 -0.3583
  270EMI    C05 5118   4.568   2.021   2.301 -0.7863  0.8779 -0.8999
  270EMI    H0B 5119   4.644   1.945   2.307  0.5354  2.0889 -1.7518
  270EMI    H0C 5120   4.588   2.099   2.230  0.5135 -1.9941 -3.9738
  270EMI    H0D 5121   4.539   2.059   2.398  1.9702  0.2762  0.2542
  270EMI    N00 5122   4.448   1.954   2.254  0.1270  0.0683 -0.6344
  270EMI    C06 5123   4.103   1.955   2.121 -0.1763 -0.5328  0.5164
  270EMI    H0F 5124   4.104   2.033   2.046  0.0916  0.4277  1.4893
  270EMI    C0N 5125   4.069   1.828   2.045  0.1621 -0.7909  1.0277
  270EMI    H0O 5126   4.141   1.798   1.971 -0.1571  1.3980 -0.2476
  270EMI    H0P 5127   4.026   1.751   2.108 -3.0784 -0.1982 -0.2370
  270EMI    H0Q 5128   3.981   1.842   1.983 -0.2092  2.7417  2.1001
  270EMI    N02 5129   4.239   1.932   2.188 -0.1299  0.0413 -0.2806
  270EMI    H0E 5130   4.021   1.981   2.187 -0.2804  0.0181  0.1790
  271EMI    C01 5131   1.098   1.204   1.159  0.1121 -0.7401  0.2916
  271EMI    C04 5132   1.168   1.195   1.365 -0.3334  0.0368 -0.0302
  271EMI    C03 5133   1.075   1.097   1.351  0.2527 -0.5528 -0.0183
  271EMI    H07 5134   1.087   1.240   1.059 -0.6745  0.0178  0.6321
  271EMI    H09 5135   1.224   1.228   1.449  0.6975 -1.2120 -0.2000
  271EMI    H08 5136   1.038   1.024   1.419 -1.3731 -0.5540 -0.8461
  271EMI    C05 5137   0.941   1.011   1.155  0.4299  0.0176  0.0069
  271EMI    H0B 5138   0.865   0.992   1.229  1.7592  1.2446  1.7393
  271EMI    H0C 5139   0.904   1.054   1.063  0.5216 -1.4136 -0.7301
  271EMI    H0D 5140   0.981   0.913   1.132 -1.2494 -0.8139  0.4212
  271EMI    N00 5141   1.034   1.102   1.218 -0.0279 -0.6184  0.2471
  271EMI    C06 5142   1.277   1.371   1.222  0.3243 -0.0778  0.3885
  271EMI    H0F 5143   1.283   1.376   1.114  0.3898  0.9272  0.4244
  271EMI    C0N 5144   1.220   1.495   1.289 -0.1688  0.4965  0.1197
  271EMI    H0O 5145   1.112   1.497   1.274 -0.3785 -0.7840  1.2805
  271EMI    H0P 5146   1.236   1.477   1.394 -1.7418 -1.2022  0.1285
  271EMI    H0Q 5147   1.265   1.588   1.255  1.3640 -0.5690 -0.8694
  271EMI    N02 5148   1.182   1.257   1.243  0.3404  0.3973  0.2968
  271EMI    H0E 5149   1.381   1.351   1.241  0.4414 -0.8267 -0.9342
  272EMI    C01 5150   2.750   2.694   3.495 -0.5708 -0.5082  0.2052
  272EMI    C04 5151   2.774   2.777   3.293 -0.3575  0.5814  0.1337
  272EMI    C03 5152   2.885   2.797   3.363  1.1040 -0.5456  0.1648
  272EMI    H07 5153   2.695   2.656   3.577  0.1581 -2.0025  0.0278
  272EMI    H09 5154   2.744   2.802   3.194 -2.3755  0.1167  0.5895
  272EMI    H08 5155   2.972   2.856   3.345  0.3546  0.5143 -0.0954
  272EMI    C05 5156   2.939   2.800   3.613  0.1965  0.4417 -0.3116
  272EMI    H0B 5157   2.894   2.754   3.700 -2.4929  1.2729 -1.1569
  272EMI    H0C 5158   3.040   2.767   3.592 -0.2778 -1.2473 -0.0920
  272EMI    H0D 5159   2.922   2.906   3.626 -1.3669  0.1919 -0.1471
  272EMI    N00 5160   2.864   2.763   3.495  0.3254 -0.7013  0.1105
  272EMI    C06 5161   2.565   2.640   3.336 -0.4608 -0.4210 -0.6958
  272EMI    H0F 5162   2.528   2.590   3.425  1.4739 -0.8104 -0.0683
  272EMI    C0N 5163   2.475   2.752   3.290  0.6716 -0.4421 -0.2819
  272EMI    H0O 5164   2.518   2.808   3.208 -0.5317  1.0059  0.0340
  272EMI    H0P 5165   2.373   2.717   3.281  1.2289 -2.3908  0.5019
  272EMI    H0Q 5166   2.480   2.824   3.371 -0.5828  0.8272 -1.2774
  272EMI    N02 5167   2.692   2.697   3.375 -0.3125 -0.2530 -0.3963
  272EMI    H0E 5168   2.582   2.564   3.261 -1.8259 -1.7857  0.3185
  273EMI    C01 5169   4.142   2.892   2.664 -0.4247  0.4980 -0.6651
  273EMI    C04 5170   3.924   2.894   2.670 -0.1711 -0.0967  0.3262
  273EMI    C03 5171   3.972   3.020   2.669 -0.1246 -0.9996  0.1775
  273EMI    H07 5172   4.245   2.866   2.677 -0.5325  0.5840  0.4423
  273EMI    H09 5173   3.820   2.871   2.667 -0.0274 -1.2655  2.1359
  273EMI    H08 5174   3.904   3.103   2.672 -0.6397 -1.3598 -0.7540
  273EMI    C05 5175   4.197   3.130   2.692 -0.3815  0.5495 -0.4345
  273EMI    H0B 5176   4.143   3.183   2.768  1.0414 -0.4440  1.3643
  273EMI    H0C 5177   4.295   3.100   2.727 -0.4517  2.8406  2.0466
  273EMI    H0D 5178   4.208   3.191   2.604 -0.7498  1.0133 -0.1599
  273EMI    N00 5179   4.111   3.018   2.670  0.0433 -0.0335 -0.7389
  273EMI    C06 5180   4.037   2.667   2.655 -0.0560 -0.3807  0.1845
  273EMI    H0F 5181   4.137   2.632   2.677 -0.2084 -1.7575 -1.1161
  273EMI    C0N 5182   3.957   2.607   2.757  0.7468 -0.1326  0.5674
  273EMI    H0O 5183   3.865   2.564   2.720 -0.0498  0.8697  1.3549
  273EMI    H0P 5184   4.012   2.528   2.807 -0.5590 -1.0967  0.5380
  273EMI    H0Q 5185   3.940   2.684   2.831  0.6693  0.5792 -0.1750
  273EMI    N02 5186   4.037   2.812   2.671  0.2120  0.0630  0.2597
  273EMI    H0E 5187   4.008   2.637   2.555 -0.6903 -1.0567  0.5605
  274EMI    C01 5188   0.530   3.400   1.367  0.3566 -0.2899 -0.2194
  274EMI    C04 5189   0.389   3.503   1.242 -0.3760 -0.1238 -0.5603
  274EMI    C03 5190   0.332   3.390   1.285  0.3398  0.2109 -0.2213
  274EMI    H07 5191   0.618   3.374   1.420 -0.1019  1.7506  1.6909
  274EMI    H09 5192   0.352   3.576   1.174 -0.8099 -1.3838 -1.7357
  274EMI    H08 5193   0.246   3.335   1.256  1.0423 -2.0032  1.5676
  274EMI    C05 5194   0.397   3.213   1.448  0.0662  0.7767  0.0988
  274EMI    H0B 5195   0.426   3.216   1.552 -1.4141  1.5233  0.5168
  274EMI    H0C 5196   0.291   3.193   1.444  0.0982  0.7396 -1.2144
  274EMI    H0D 5197   0.452   3.128   1.410 -1.1657  0.0173 -0.0426
  274EMI    N00 5198   0.422   3.331   1.369  0.6562  0.0869  0.5178
  274EMI    C06 5199   0.621   3.600   1.270 -1.3293  0.5107  0.2214
  274EMI    H0F 5200   0.682   3.604   1.359 -1.5849  4.6667  0.4206
  274EMI    C0N 5201   0.693   3.571   1.139  0.9294  0.6017 -0.6395
  274EMI    H0O 5202   0.735   3.471   1.147 -1.3623 -0.3497  0.4368
  274EMI    H0P 5203   0.624   3.570   1.055 -0.5667 -1.9534  0.5010
  274EMI    H0Q 5204   0.762   3.654   1.126 -0.9154  2.4947  0.8335
  274EMI    N02 5205   0.509   3.509   1.301 -0.0900  0.0223  0.3486
  274EMI    H0E 5206   0.578   3.699   1.275 -1.5727  0.4437 -0.4690
  275EMI    C01 5207   5.086   2.666   2.310  0.1718  0.3428 -0.2548
  275EMI    C04 5208   4.947   2.676   2.145 -0.2629 -0.4178  0.1251
  275EMI    C03 5209   4.891   2.746   2.244  0.1831 -0.0018  0.5077
  275EMI    H07 5210   5.172   2.641   2.368  2.6239  2.1223 -2.8367
  275EMI    H09 5211   4.901   2.642   2.055 -0.0877 -2.4102  0.7371
  275EMI    H08 5212   4.792   2.788   2.247  0.8099  1.5083  1.1906
  275EMI    C05 5213   4.978   2.805   2.477 -0.3156 -0.8403  0.0983
  275EMI    H0B 5214   4.992   2.911   2.487  0.3850 -1.0971  2.4827
  275EMI    H0C 5215   4.875   2.800   2.510 -0.3379 -0.2521  0.1231
  275EMI    H0D 5216   5.043   2.756   2.548 -0.6252  0.8055  1.6019
  275EMI    N00 5217   4.983   2.745   2.347 -0.3590  0.1585  0.1626
  275EMI    C06 5218   5.176   2.560   2.109 -0.2245 -0.4023 -0.4722
  275EMI    H0F 5219   5.154   2.456   2.127 -1.8761  0.2663  2.0465
  275EMI    C0N 5220   5.212   2.617   1.973  0.0040  0.0439 -0.3498
  275EMI    H0O 5221   5.314   2.586   1.953 -0.8003 -2.3064 -1.1765
  275EMI    H0P 5222   5.142   2.578   1.900  0.9595 -1.5353 -0.4604
  275EMI    H0Q 5223   5.214   2.725   1.978 -0.3328  0.0194  0.4958
  275EMI    N02 5224   5.072   2.632   2.188  0.0250  0.2730  0.3204
  275EMI    H0E 5225   5.273   2.567   2.155 -0.0870 -0.6179 -0.7313
  276EMI    C01 5226   2.856   2.420   1.238  0.2140 -0.5971  0.4091
  276EMI    C04 5227   2.661   2.401   1.132 -0.4309 -0.2094  0.2755
  276EMI    C03 5228   2.716   2.281   1.147 -0.6954 -0.0746  0.5372
  276EMI    H07 5229   2.948   2.466   1.268 -0.1731  0.0416  0.6325
  276EMI    H09 5230   2.566   2.429   1.091 -0.2558  0.3284  0.2217
  276EMI    H08 5231   2.680   2.186   1.114  1.2438  0.4271 -3.7272
  276EMI    C05 5232   2.949   2.189   1.227 -0.1928  0.9075 -0.1517
  276EMI    H0B 5233   3.033   2.203   1.160  1.1480 -2.1541  0.7122
  276EMI    H0C 5234   2.990   2.206   1.326 -1.6802 -2.0204  1.0885
  276EMI    H0D 5235   2.916   2.086   1.222 -0.8243  1.1747 -2.3580
  276EMI    N00 5236   2.840   2.292   1.205  0.0042  0.1256 -0.2695
  276EMI    C06 5237   2.732   2.637   1.187 -0.4251 -0.4137  0.2574
  276EMI    H0F 5238   2.645   2.671   1.241 -0.2852  0.9180 -0.3247
  276EMI    C0N 5239   2.849   2.711   1.247 -0.2909  0.1184 -0.4850
  276EMI    H0O 5240   2.849   2.696   1.354  2.3961 -0.1116 -0.4504
  276EMI    H0P 5241   2.939   2.668   1.205  0.7775  1.7766 -0.0105
  276EMI    H0Q 5242   2.846   2.818   1.227  2.0441  0.3393  0.1157
  276EMI    N02 5243   2.748   2.492   1.199 -0.6449 -0.5370 -0.3912
  276EMI    H0E 5244   2.733   2.663   1.082 -0.7624  0.9227  0.5775
  277EMI    C01 5245   5.093   0.065   3.274  0.5678 -0.2824  0.1097
  277EMI    C04 5246   5.168  -0.029   3.089  1.1923 -0.4283  0.3597
  277EMI    C03 5247   5.094  -0.120   3.151  0.0349 -0.5692 -0.2167
  277EMI    H07 5248   5.068   0.141   3.345 -0.8603 -1.0316  0.4461
  277EMI    H09 5249   5.197  -0.025   2.987 -2.1858 -0.2283 -0.7111
  277EMI    H08 5250   5.052  -0.211   3.115 -2.6022  0.6310 -0.4319
  277EMI    C05 5251   4.955  -0.127   3.356 -0.1786 -0.8251  0.7538
  277EMI    H0B 5252   4.954  -0.086   3.456  1.9885 -2.4126  1.5296
  277EMI    H0C 5253   4.855  -0.137   3.316  0.2727 -0.7274 -0.4404
  277EMI    H0D 5254   4.987  -0.230   3.368 -1.8349 -1.4501  0.0352
  277EMI    N00 5255   5.052  -0.058   3.269  0.8567  0.7591 -0.7594
  277EMI    C06 5256   5.218   0.216   3.123  0.0072  0.0639  0.0193
  277EMI    H0F 5257   5.222   0.215   3.015 -0.4509  1.6240 -0.0364
  277EMI    C0N 5258   5.135   0.337   3.171 -1.0307 -0.3966  0.0701
  277EMI    H0O 5259   5.160   0.427   3.115  3.1922 -0.6335  1.2245
  277EMI    H0P 5260   5.028   0.320   3.165 -0.6667 -2.6050 -1.4241
  277EMI    H0Q 5261   5.177   0.357   3.269 -0.9927 -0.7008  0.1145
  277EMI    N02 5262   5.168   0.084   3.169  0.4566 -0.3014  0.2007
  277EMI    H0E 5263   5.321   0.210   3.156 -0.4396 -0.2834  1.4202
  278EMI    C01 5264   0.317   2.727   4.100 -0.4873  0.5714 -0.6314
  278EMI    C04 5265   0.517   2.769   4.039 -0.0330 -0.4127  0.7277
  278EMI    C03 5266   0.444   2.733   3.926  0.9056 -0.5743  0.1002
  278EMI    H07 5267   0.229   2.711   4.159 -1.2148  1.1934 -1.5128
  278EMI    H09 5268   0.623   2.787   4.035 -0.1051 -0.0915  0.1538
  278EMI    H08 5269   0.461   2.737   3.821 -1.8119  3.2225 -0.4058
  278EMI    C05 5270   0.190   2.707   3.880 -0.0048 -0.0161 -0.0834
  278EMI    H0B 5271   0.163   2.792   3.821 -4.4148 -0.6178  0.7717
  278EMI    H0C 5272   0.205   2.635   3.801 -1.7774  0.5336 -0.9490
  278EMI    H0D 5273   0.099   2.676   3.928 -0.5313  1.5180 -0.0617
  278EMI    N00 5274   0.312   2.721   3.970 -0.7950  0.0986  0.0433
  278EMI    C06 5275   0.475   2.759   4.289  0.6461 -0.0288  0.0929
  278EMI    H0F 5276   0.413   2.691   4.346  0.9209 -1.1503 -0.9153
  278EMI    C0N 5277   0.609   2.703   4.318  0.1654 -0.5052 -0.4180
  278EMI    H0O 5278   0.695   2.755   4.278  0.1214 -0.9117 -1.0654
  278EMI    H0P 5279   0.630   2.704   4.424  2.1344  0.3321 -0.7691
  278EMI    H0Q 5280   0.611   2.599   4.284  1.4352 -1.0260  1.1439
  278EMI    N02 5281   0.440   2.750   4.150 -0.5655  0.0189 -0.0189
  278EMI    H0E 5282   0.478   2.864   4.316 -0.9993 -0.1320  0.7894
  279EMI    C01 5283   4.419   4.011   0.541  0.0161  0.0478 -0.3551
  279EMI    C04 5284   4.233   4.100   0.470  0.3040  0.0453  0.5252
  279EMI    C03 5285   4.291   4.183   0.557 -0.3059  0.0865  0.0106
  279EMI    H07 5286   4.506   3.951   0.555  1.3020  2.0517  0.7585
  279EMI    H09 5287   4.141   4.104   0.416  2.2214 -1.4665 -3.1866
  279EMI    H08 5288   4.256   4.276   0.596  0.9107  0.1788  0.9473
  279EMI    C05 5289   4.506   4.190   0.698  0.2192  0.1393 -0.2284
  279EMI    H0B 5290   4.541   4.281   0.652  0.4799 -0.3054 -0.9163
  279EMI    H0C 5291   4.451   4.215   0.788  3.7204  3.2671  1.2991
  279EMI    H0D 5292   4.583   4.119   0.722 -1.8531 -2.0943  0.2770
  279EMI    N00 5293   4.414   4.127   0.602  0.2402 -0.8889 -0.1989
  279EMI    C06 5294   4.283   3.874   0.381  1.0166 -0.2817 -0.5515
  279EMI    H0F 5295   4.207   3.812   0.426  0.6434 -0.6228 -1.6270
  279EMI    C0N 5296   4.257   3.913   0.240 -1.0248 -0.6842  0.0082
  279EMI    H0O 5297   4.240   3.817   0.191 -1.0836 -0.9636  0.5707
  279EMI    H0P 5298   4.164   3.970   0.236 -2.1445 -2.2701  1.6451
  279EMI    H0Q 5299   4.337   3.968   0.193 -1.7069 -0.9195 -1.4944
  279EMI    N02 5300   4.312   3.987   0.465 -0.0052 -0.1719 -0.1429
  279EMI    H0E 5301   4.377   3.821   0.380  0.9056 -0.6068  1.6446
  280EMI    C01 5302   4.079   3.917   5.056 -0.5570 -0.3892  0.1504
  280EMI    C04 5303   4.025   3.740   5.166 -0.3347 -0.5755 -0.4239
  280EMI    C03 5304   4.130   3.714   5.094 -0.1252 -0.5308 -0.3827
  280EMI    H07 5305   4.089   4.018   5.023  0.5180 -1.0020 -1.5107
  280EMI    H09 5306   3.980   3.683   5.244  0.0937  0.7438  0.8271
  280EMI    H08 5307   4.202   3.635   5.083  0.9992  0.2780  0.9263
  280EMI    C05 5308   4.294   3.860   4.964 -1.1489 -0.1312  0.7737
  280EMI    H0B 5309   4.300   3.967   4.948 -0.2187  0.6541  4.9788
  280EMI    H0C 5310   4.381   3.848   5.026  0.6305  3.6805 -0.6673
  280EMI    H0D 5311   4.300   3.808   4.870  0.8794  3.0160 -1.0362
  280EMI    N00 5312   4.164   3.826   5.028  0.2356 -0.1933  0.1079
  280EMI    C06 5313   3.902   3.953   5.215 -0.6771 -0.0337 -0.2776
  280EMI    H0F 5314   3.816   3.972   5.153 -0.8937  0.0075  0.0349
  280EMI    C0N 5315   3.867   3.887   5.346  1.5289 -0.3145 -0.2308
  280EMI    H0O 5316   3.805   3.800   5.361 -2.5508  2.4779  0.8497
  280EMI    H0P 5317   3.951   3.886   5.415  1.7280  3.4467 -0.1964
  280EMI    H0Q 5318   3.797   3.961   5.384 -0.2014 -2.5933  1.2816
  280EMI    N02 5319   3.991   3.871   5.142  0.0837 -0.7052 -1.3601
  280EMI    H0E 5320   3.951   4.044   5.246 -1.6830  0.0998  1.0246
  281EMI    C01 5321   0.463   4.284   2.205 -0.2858 -0.6565 -0.2759
  281EMI    C04 5322   0.471   4.480   2.117 -0.6532  0.0693  0.5097
  281EMI    C03 5323   0.426   4.398   2.024  0.0753  0.0632  0.0940
  281EMI    H07 5324   0.472   4.213   2.284 -0.4806  0.2428  0.5711
  281EMI    H09 5325   0.485   4.586   2.105  0.6260  0.1719  2.4057
  281EMI    H08 5326   0.408   4.420   1.921  0.8387  2.7796  0.4514
  281EMI    C05 5327   0.402   4.141   2.006  0.2323  0.1302  0.2424
  281EMI    H0B 5328   0.451   4.060   2.058 -2.1521 -2.3559 -1.0755
  281EMI    H0C 5329   0.299   4.111   2.019  0.6296 -1.7829 -0.5773
  281EMI    H0D 5330   0.437   4.136   1.905 -0.1996 -0.4556  0.1125
  281EMI    N00 5331   0.428   4.271   2.081 -0.4803  0.5996  0.9702
  281EMI    C06 5332   0.537   4.475   2.355 -0.6231 -0.3896  0.9103
  281EMI    H0F 5333   0.519   4.405   2.435 -1.7773 -1.5890 -0.3201
  281EMI    C0N 5334   0.688   4.518   2.355  0.6470  0.5461  0.2319
  281EMI    H0O 5335   0.712   4.579   2.268  1.8512 -1.6095 -1.0239
  281EMI    H0P 5336   0.729   4.567   2.443  0.3137  2.9093 -0.8337
  281EMI    H0Q 5337   0.741   4.429   2.325  0.7760  0.6010  0.2922
  281EMI    N02 5338   0.496   4.409   2.232 -0.2687 -0.2638  0.0351
  281EMI    H0E 5339   0.466   4.554   2.372  0.2720  0.7512 -0.4275
  282EMI    C01 5340   2.843   1.752   2.926 -0.3802  0.1968  0.0721
  282EMI    C04 5341   2.689   1.836   2.795  0.4900 -0.1770  0.1042
  282EMI    C03 5342   2.778   1.772   2.720 -1.1260  0.1888  0.4733
  282EMI    H07 5343   2.907   1.738   3.011  0.4980  1.5818 -0.3382
  282EMI    H09 5344   2.596   1.883   2.771 -0.2110 -1.4791  0.2168
  282EMI    H08 5345   2.769   1.765   2.614  1.6917  1.7493  0.0417
  282EMI    C05 5346   2.993   1.635   2.768  0.1480 -0.6681  0.6546
  282EMI    H0B 5347   3.038   1.659   2.672  1.2551  0.4420  1.4245
  282EMI    H0C 5348   3.075   1.634   2.838 -0.2817  2.2547  1.3332
  282EMI    H0D 5349   2.963   1.532   2.755 -1.1917 -0.0772 -1.3976
  282EMI    N00 5350   2.875   1.718   2.804 -0.6486 -0.7774  0.8817
  282EMI    C06 5351   2.656   1.883   3.050 -0.8741  0.9562  0.5346
  282EMI    H0F 5352   2.711   1.970   3.081  2.3458 -0.7383 -0.0631
  282EMI    C0N 5353   2.504   1.886   3.030  0.4056 -0.0007  0.1448
  282EMI    H0O 5354   2.453   1.924   3.118 -0.2508 -1.4359  0.4211
  282EMI    H0P 5355   2.477   1.959   2.955  0.5060 -0.0496  0.0606
  282EMI    H0Q 5356   2.464   1.787   3.011  2.8625 -0.6816 -1.9571
  282EMI    N02 5357   2.727   1.825   2.928  0.3771  0.1108 -0.5111
  282EMI    H0E 5358   2.673   1.810   3.127 -1.2826  0.1187 -0.1453
  283EMI    C01 5359   2.249   4.060   1.006 -0.3390 -0.6432 -0.1847
  283EMI    C04 5360   2.447   4.063   0.917  0.0766  0.2946 -0.2828
  283EMI    C03 5361   2.378   3.971   0.853  0.0742 -0.7760 -0.1310
  283EMI    H07 5362   2.167   4.072   1.073  1.3130  1.0119  1.7025
  283EMI    H09 5363   2.548   4.093   0.897  0.8269 -0.5156  1.9765
  283EMI    H08 5364   2.406   3.905   0.773  1.5140 -0.4464  0.0700
  283EMI    C05 5365   2.166   3.850   0.906 -0.1666 -0.0846  0.1271
  283EMI    H0B 5366   2.073   3.875   0.955 -0.7293 -0.0839 -0.9092
  283EMI    H0C 5367   2.148   3.845   0.800  0.4085  0.3506  0.0038
  283EMI    H0D 5368   2.197   3.755   0.948  2.2084 -0.4086 -2.0915
  283EMI    N00 5369   2.259   3.960   0.920 -0.6156 -0.1987  0.5540
  283EMI    C06 5370   2.380   4.259   1.072 -0.4639  0.0724  0.0969
  283EMI    H0F 5371   2.477   4.296   1.041  0.5731 -1.8121  0.9309
  283EMI    C0N 5372   2.270   4.361   1.055 -0.5704  0.4573  0.6897
  283EMI    H0O 5373   2.320   4.457   1.058  1.6064 -0.6276  1.2185
  283EMI    H0P 5374   2.224   4.342   0.959  0.7794 -0.4615  0.1896
  283EMI    H0Q 5375   2.201   4.352   1.138 -0.8036 -0.2839  0.4220
  283EMI    N02 5376   2.355   4.136   0.998 -0.0001 -0.3980 -0.0241
  283EMI    H0E 5377   2.393   4.238   1.177 -0.0519  0.8244  0.2040
  284EMI    C01 5378   1.373   2.380   0.405  0.0382  0.4701  0.7754
  284EMI    C04 5379   1.193   2.369   0.283 -0.0337  0.7210  0.5587
  284EMI    C03 5380   1.291   2.418   0.203 -0.0150 -0.4285  0.1597
  284EMI    H07 5381   1.441   2.381   0.487 -0.8662 -0.5830  1.5523
  284EMI    H09 5382   1.090   2.360   0.257  0.6654 -3.3899 -1.5360
  284EMI    H08 5383   1.300   2.447   0.100 -0.8730 -3.0006 -0.7241
  284EMI    C05 5384   1.541   2.456   0.243  0.5752  0.3993 -0.3400
  284EMI    H0B 5385   1.605   2.491   0.322 -1.4320  2.9068  0.3230
  284EMI    H0C 5386   1.588   2.376   0.188 -1.1635 -0.4867 -0.6139
  284EMI    H0D 5387   1.527   2.536   0.172  2.8575  2.1393  1.0660
  284EMI    N00 5388   1.403   2.424   0.284 -0.3639 -0.0833  0.2677
  284EMI    C06 5389   1.158   2.327   0.525 -0.1061 -0.1179  0.3137
  284EMI    H0F 5390   1.139   2.221   0.537  0.7386 -0.1924  1.0780
  284EMI    C0N 5391   1.229   2.378   0.648  0.3014 -0.5938 -0.2551
  284EMI    H0O 5392   1.323   2.324   0.641  0.2464 -0.8706  0.9064
  284EMI    H0P 5393   1.256   2.483   0.647 -0.2906 -0.4321  0.1934
  284EMI    H0Q 5394   1.182   2.356   0.743  0.6123 -1.2516 -0.2432
  284EMI    N02 5395   1.243   2.352   0.409 -0.0488  1.0344  0.1352
  284EMI    H0E 5396   1.067   2.384   0.511 -0.6474 -1.0700 -0.1394
  285EMI    C01 5397   1.397   4.199   1.951  0.1449 -0.1954  1.1533
  285EMI    C04 5398   1.350   4.407   1.997 -0.4417  0.7185 -0.0383
  285EMI    C03 5399   1.388   4.341   2.112 -0.2464 -0.3252 -0.6224
  285EMI    H07 5400   1.402   4.113   1.888 -1.0206  0.4715  0.1035
  285EMI    H09 5401   1.320   4.509   1.989 -1.2922  0.3319 -2.3299
  285EMI    H08 5402   1.397   4.371   2.214  1.4626 -1.9486 -0.2283
  285EMI    C05 5403   1.493   4.111   2.163  0.1097  0.0506 -0.6444
  285EMI    H0B 5404   1.541   4.043   2.095  0.8984 -0.5757  0.5022
  285EMI    H0C 5405   1.565   4.156   2.229  0.0518 -0.7689  0.0031
  285EMI    H0D 5406   1.420   4.065   2.229  1.3729  0.0499  0.7986
  285EMI    N00 5407   1.429   4.215   2.076 -0.2835  0.7138  0.2436
  285EMI    C06 5408   1.288   4.323   1.763  0.2290 -0.5088  0.3976
  285EMI    H0F 5409   1.189   4.365   1.781  0.3239 -0.6032  1.1249
  285EMI    C0N 5410   1.369   4.393   1.650  0.3023 -0.1516  0.3265
  285EMI    H0O 5411   1.466   4.348   1.633  0.3797  0.4877 -1.0963
  285EMI    H0P 5412   1.317   4.384   1.555 -1.9106  0.7369  1.3683
  285EMI    H0Q 5413   1.383   4.499   1.669 -0.1237 -0.3495  1.8281
  285EMI    N02 5414   1.355   4.315   1.898  0.0822 -0.6576  0.8650
  285EMI    H0E 5415   1.255   4.224   1.734 -2.3582  0.8016 -1.7056
  286EMI    C01 5416   4.998   2.756   0.075 -0.7263  0.2169 -0.0910
  286EMI    C04 5417   5.125   2.931   0.116  0.0868 -0.2427  0.0294
  286EMI    C03 5418   5.122   2.911  -0.017  0.6017  0.0244  0.2426
  286EMI    H07 5419   4.928   2.678   0.096 -0.5681  0.2118  0.4347
  286EMI    H09 5420   5.174   3.007   0.173  0.0235  0.5516 -0.9614
  286EMI    H08 5421   5.151   2.983  -0.090 -1.4654 -0.2536 -0.9031
  286EMI    C05 5422   5.018   2.744  -0.174  0.2368 -0.2098 -0.6865
  286EMI    H0B 5423   4.948   2.815  -0.216 -0.5228  0.1441  1.0831
  286EMI    H0C 5424   5.110   2.748  -0.231  0.8945 -0.0453  0.3528
  286EMI    H0D 5425   4.981   2.643  -0.180  2.2422 -0.9522 -1.3749
  286EMI    N00 5426   5.044   2.801  -0.038  1.2533 -0.7034  0.7525
  286EMI    C06 5427   5.006   2.815   0.317  0.1821 -0.6079  0.8365
  286EMI    H0F 5428   5.089   2.821   0.387  0.5937  2.7957  0.2572
  286EMI    C0N 5429   4.883   2.901   0.356  0.2305 -0.1187  0.4375
  286EMI    H0O 5430   4.797   2.857   0.307  1.2474 -1.0512 -0.5655
  286EMI    H0P 5431   4.868   2.888   0.463  2.5076 -2.3725  0.5734
  286EMI    H0Q 5432   4.899   3.004   0.330 -2.5075  1.1743  3.1468
  286EMI    N02 5433   5.054   2.825   0.173  0.2605 -0.1281 -0.2760
  286EMI    H0E 5434   4.972   2.713   0.319  0.2564 -0.6318  3.2022
  287EMI    C01 5435   0.451   0.631   3.939  0.5829  0.1426 -0.1695
  287EMI    C04 5436   0.480   0.514   3.760 -0.3150 -0.1268 -0.1596
  287EMI    C03 5437   0.496   0.647   3.724  0.2818  0.6320  0.5192
  287EMI    H07 5438   0.429   0.661   4.040  2.3334 -0.7003  0.5040
  287EMI    H09 5439   0.488   0.422   3.706 -0.9360 -1.1178  1.3677
  287EMI    H08 5440   0.522   0.694   3.632  3.2834  1.8222  1.8525
  287EMI    C05 5441   0.463   0.864   3.857  0.6833 -0.2060 -0.7854
  287EMI    H0B 5442   0.553   0.899   3.904  0.7403 -0.9339 -0.3450
  287EMI    H0C 5443   0.439   0.898   3.757 -1.5897  0.7191  0.0102
  287EMI    H0D 5444   0.383   0.892   3.924  0.7642  1.6126 -1.3865
  287EMI    N00 5445   0.472   0.717   3.841 -0.0544 -0.2366 -0.2870
  287EMI    C06 5446   0.463   0.390   3.970 -0.4938  0.4009  0.8279
  287EMI    H0F 5447   0.410   0.419   4.060  0.9723  3.3442  0.8535
  287EMI    C0N 5448   0.377   0.272   3.917 -0.2175 -0.1153 -0.3345
  287EMI    H0O 5449   0.412   0.217   3.830 -1.7163 -1.4999 -0.1226
  287EMI    H0P 5450   0.352   0.203   3.997 -0.7631  0.3088 -0.1325
  287EMI    H0Q 5451   0.274   0.302   3.900 -0.3364  0.0483  0.6305
  287EMI    N02 5452   0.467   0.516   3.896 -0.5914  0.6841 -0.0566
  287EMI    H0E 5453   0.561   0.348   3.985 -1.0776 -0.9166  1.1545
  288EMI    C01 5454   3.446   1.333   0.965  0.2584  0.3411  0.0577
  288EMI    C04 5455   3.339   1.482   0.850 -0.0661  0.2842  0.1759
  288EMI    C03 5456   3.469   1.506   0.840  0.2213 -0.1603 -0.0579
  288EMI    H07 5457   3.477   1.243   1.014  1.4337  0.2000 -0.8805
  288EMI    H09 5458   3.258   1.541   0.812  1.7848  2.2814 -0.8204
  288EMI    H08 5459   3.502   1.590   0.784 -1.6457  0.8482  0.2733
  288EMI    C05 5460   3.678   1.407   0.911  0.0802  0.2440 -0.0391
  288EMI    H0B 5461   3.719   1.310   0.935 -3.5419 -1.1347  1.3045
  288EMI    H0C 5462   3.707   1.428   0.810  1.7926 -2.2212 -0.1419
  288EMI    H0D 5463   3.714   1.496   0.961 -0.7379  1.3840 -1.3916
  288EMI    N00 5464   3.533   1.409   0.905  0.3387 -0.0004 -0.1982
  288EMI    C06 5465   3.200   1.338   1.002  0.1319 -0.8354 -0.2413
  288EMI    H0F 5466   3.224   1.261   1.074  0.3905 -2.2325 -1.7637
  288EMI    C0N 5467   3.122   1.457   1.065  0.1263  0.2957  0.0630
  288EMI    H0O 5468   3.137   1.554   1.018 -0.7666  1.1358  1.4373
  288EMI    H0P 5469   3.020   1.420   1.062  0.6577 -1.4060  1.3569
  288EMI    H0Q 5470   3.134   1.478   1.171 -0.0137  1.5823 -0.1554
  288EMI    N02 5471   3.326   1.374   0.936  0.3642 -0.1121 -0.0857
  288EMI    H0E 5472   3.140   1.287   0.929 -0.5799 -1.3522  0.6893
  289EMI    C01 5473   0.946   4.081   1.613 -0.2413  0.0076  1.0692
  289EMI    C04 5474   1.094   4.195   1.489 -0.4098 -0.6761 -0.8961
  289EMI    C03 5475   0.985   4.269   1.509  0.3346 -0.9114 -0.1385
  289EMI    H07 5476   0.888   3.996   1.644 -0.7045  0.0477  0.3478
  289EMI    H09 5477   1.180   4.213   1.429  1.4870 -3.0971  0.8573
  289EMI    H08 5478   0.967   4.369   1.476  0.6996 -0.9812 -0.5622
  289EMI    C05 5479   0.759   4.241   1.623  0.4749  0.1077  0.0783
  289EMI    H0B 5480   0.770   4.349   1.624 -1.4142  0.3386  2.0922
  289EMI    H0C 5481   0.688   4.209   1.548 -1.4760  1.7723  1.1114
  289EMI    H0D 5482   0.721   4.203   1.716  1.2855 -3.7100 -0.9725
  289EMI    N00 5483   0.894   4.201   1.584  0.2022  0.3443  0.4087
  289EMI    C06 5484   1.158   3.960   1.545 -0.0032 -0.6640  0.5562
  289EMI    H0F 5485   1.163   3.938   1.440  3.0296  2.3821 -0.1455
  289EMI    C0N 5486   1.300   3.967   1.599 -0.1254 -0.3047 -0.1011
  289EMI    H0O 5487   1.362   3.886   1.562 -2.0667 -1.4228 -1.0438
  289EMI    H0P 5488   1.354   4.050   1.553 -0.2066  0.5080  1.2252
  289EMI    H0Q 5489   1.319   3.978   1.705 -0.3795 -0.6581 -0.0187
  289EMI    N02 5490   1.068   4.078   1.554 -0.8491  0.9345 -0.2881
  289EMI    H0E 5491   1.096   3.876   1.574 -1.6172 -0.3593 -1.7622
  290EMI    C01 5492   3.503   2.133   1.495 -0.0067  0.4301  0.6445
  290EMI    C04 5493   3.375   2.269   1.381  0.2473 -0.1954  0.7451
  290EMI    C03 5494   3.420   2.335   1.487 -0.5759  0.4198  0.6804
  290EMI    H07 5495   3.554   2.049   1.536 -0.4386 -0.4234 -0.5012
  290EMI    H09 5496   3.305   2.300   1.307  0.5571 -1.7807 -0.2599
  290EMI    H08 5497   3.385   2.421   1.539 -0.0308 -0.0501  1.8510
  290EMI    C05 5498   3.577   2.274   1.683 -0.0533 -0.2611  0.8737
  290EMI    H0B 5499   3.509   2.309   1.759 -2.1366  1.7467 -1.7191
  290EMI    H0C 5500   3.619   2.180   1.717  1.6478  0.7995  1.8276
  290EMI    H0D 5501   3.660   2.339   1.661  0.4286 -1.6476 -1.7646
  290EMI    N00 5502   3.503   2.249   1.555 -0.3553  0.3826 -0.1452
  290EMI    C06 5503   3.415   2.032   1.283 -1.2566  0.0451 -0.2469
  290EMI    H0F 5504   3.507   1.976   1.284 -2.7255 -2.5229  0.2846
  290EMI    C0N 5505   3.296   1.944   1.317  0.1215  1.0312  0.5581
  290EMI    H0O 5506   3.206   1.977   1.267 -0.7328  0.3019  1.5629
  290EMI    H0P 5507   3.309   1.842   1.284 -1.0437  0.9403  0.3592
  290EMI    H0Q 5508   3.292   1.945   1.426  0.1805 -0.3944  0.5852
  290EMI    N02 5509   3.436   2.141   1.382  0.0696 -0.4003 -0.4239
  290EMI    H0E 5510   3.405   2.076   1.185  2.4394  1.3684 -0.2086
  291EMI    C01 5511   1.583   0.233   3.208 -0.0275  0.2446 -0.0288
  291EMI    C04 5512   1.722   0.320   3.351  0.6856  0.3574 -0.2322
  291EMI    C03 5513   1.658   0.421   3.284  0.4800  0.4128  0.1750
  291EMI    H07 5514   1.521   0.166   3.151 -2.0330  1.7442  0.2743
  291EMI    H09 5515   1.793   0.322   3.431  0.1422 -2.3536  0.4166
  291EMI    H08 5516   1.663   0.527   3.292  0.3818  0.3790  0.7065
  291EMI    C05 5517   1.490   0.439   3.096  0.1812 -0.0827 -0.0533
  291EMI    H0B 5518   1.419   0.370   3.052  0.1508 -0.0070 -0.1225
  291EMI    H0C 5519   1.437   0.522   3.139  0.0985 -0.4442  0.5519
  291EMI    H0D 5520   1.556   0.482   3.022 -0.6201 -0.1599 -0.8331
  291EMI    N00 5521   1.574   0.366   3.195 -0.0534  0.3329  0.1628
  291EMI    C06 5522   1.733   0.072   3.322 -1.2216  0.7319 -0.7939
  291EMI    H0F 5523   1.673  -0.003   3.272 -0.0158  0.0091 -1.1823
  291EMI    C0N 5524   1.877   0.058   3.281 -0.0385 -0.3447  0.3745
  291EMI    H0O 5525   1.931   0.130   3.342 -2.5370  1.7919  0.2234
  291EMI    H0P 5526   1.924  -0.038   3.297  2.1897  0.4900 -0.6704
  291EMI    H0Q 5527   1.895   0.084   3.177  1.6098 -0.1688  0.6675
  291EMI    N02 5528   1.676   0.205   3.297 -0.8009  0.5212  0.2652
  291EMI    H0E 5529   1.741   0.058   3.429  0.3732  1.0882 -0.8477
  292EMI    C01 5530   2.497   3.379   4.540  0.2415  0.0500  0.4919
  292EMI    C04 5531   2.535   3.349   4.756  0.2845 -0.2656 -0.0849
  292EMI    C03 5532   2.613   3.450   4.709 -0.1589 -0.1611  0.3945
  292EMI    H07 5533   2.456   3.371   4.441  0.0510  2.1334  0.3727
  292EMI    H09 5534   2.520   3.309   4.854 -1.1310  0.8936  0.2162
  292EMI    H08 5535   2.680   3.512   4.764 -0.0156  2.7918 -2.8072
  292EMI    C05 5536   2.656   3.566   4.483  0.2280  0.2069 -0.0650
  292EMI    H0B 5537   2.764   3.566   4.484  0.2341  1.1947  0.7067
  292EMI    H0C 5538   2.623   3.540   4.383  4.0767 -0.6989 -1.2590
  292EMI    H0D 5539   2.613   3.660   4.513 -0.4005  0.3294 -1.2867
  292EMI    N00 5540   2.596   3.461   4.574  0.1488 -0.2405  0.1348
  292EMI    C06 5541   2.355   3.208   4.647  0.3842 -0.2896 -0.6477
  292EMI    H0F 5542   2.389   3.113   4.686 -0.5386 -0.9105 -1.3127
  292EMI    C0N 5543   2.247   3.259   4.736  0.3276  0.0235  0.0775
  292EMI    H0O 5544   2.190   3.329   4.676 -0.2874 -0.7262 -0.2460
  292EMI    H0P 5545   2.182   3.185   4.781  0.9069 -0.4987  0.0659
  292EMI    H0Q 5546   2.288   3.304   4.825  1.2846  1.3967 -1.0090
  292EMI    N02 5547   2.471   3.300   4.641 -0.0082  0.6003 -0.1913
  292EMI    H0E 5548   2.303   3.204   4.553 -1.1026  0.4801  0.1029
  293EMI    C01 5549   4.616   1.530   4.095  0.1436 -0.0955  0.0335
  293EMI    C04 5550   4.614   1.629   3.902  0.2507  0.1833 -0.6962
  293EMI    C03 5551   4.513   1.535   3.903 -0.3224  0.0590 -0.7939
  293EMI    H07 5552   4.652   1.489   4.187 -0.6251 -1.1695 -0.1253
  293EMI    H09 5553   4.639   1.688   3.816 -2.1672 -1.3052 -2.5578
  293EMI    H08 5554   4.448   1.506   3.824  0.3980 -0.7665 -1.1033
  293EMI    C05 5555   4.427   1.370   4.076 -0.0240  0.0783 -0.1397
  293EMI    H0B 5556   4.392   1.301   4.001  2.1360 -2.1763  0.7754
  293EMI    H0C 5557   4.494   1.309   4.135  0.6836 -0.1433 -1.1482
  293EMI    H0D 5558   4.351   1.410   4.141  0.4598  1.7081 -0.5438
  293EMI    N00 5559   4.518   1.471   4.026  0.2099  0.0384  0.2478
  293EMI    C06 5560   4.793   1.702   4.053 -0.4840  0.1548 -0.2817
  293EMI    H0F 5561   4.831   1.652   4.140  0.2226 -2.0811 -1.7879
  293EMI    C0N 5562   4.906   1.694   3.950 -0.0681 -0.2929  0.3586
  293EMI    H0O 5563   4.888   1.709   3.844  4.3503  0.3378 -0.4743
  293EMI    H0P 5564   4.975   1.771   3.984  1.4083 -0.8025 -1.3544
  293EMI    H0Q 5565   4.951   1.596   3.962 -1.5680 -0.8556  1.9001
  293EMI    N02 5566   4.672   1.625   4.025 -0.2380  0.2072 -0.5420
  293EMI    H0E 5567   4.757   1.802   4.071 -0.6938  0.2559 -1.1994
  294EMI    C01 5568   1.491   0.351   3.600 -1.0420 -0.2800  0.6114
  294EMI    C04 5569   1.449   0.171   3.719  0.1039 -0.3780  0.3288
  294EMI    C03 5570   1.558   0.229   3.766  0.2832 -0.1760 -0.4132
  294EMI    H07 5571   1.491   0.421   3.519  1.6932 -0.1900  0.6025
  294EMI    H09 5572   1.394   0.082   3.742 -1.0268  0.0913 -0.4505
  294EMI    H08 5573   1.623   0.199   3.845  0.1733  1.2365  0.2434
  294EMI    C05 5574   1.691   0.435   3.719  0.4804 -0.0087  0.1486
  294EMI    H0B 5575   1.666   0.486   3.810  0.1738  0.5243 -0.2346
  294EMI    H0C 5576   1.790   0.392   3.714  0.2229 -0.4761 -1.6463
  294EMI    H0D 5577   1.682   0.509   3.641  0.0117 -2.7461 -2.6243
  294EMI    N00 5578   1.582   0.340   3.694 -0.0861 -0.5553  0.1672
  294EMI    C06 5579   1.287   0.232   3.534  0.1925  0.3995  0.4953
  294EMI    H0F 5580   1.299   0.310   3.460 -0.2416  1.3686  1.4174
  294EMI    C0N 5581   1.303   0.105   3.451  0.3123 -0.5068 -0.4397
  294EMI    H0O 5582   1.289   0.019   3.516  2.9505  0.2998  1.4136
  294EMI    H0P 5583   1.225   0.112   3.376 -0.2259  0.5719  0.2023
  294EMI    H0Q 5584   1.406   0.096   3.417  0.5729 -0.7135  0.3681
  294EMI    N02 5585   1.403   0.258   3.617  0.0438  0.6273 -0.1160
  294EMI    H0E 5586   1.204   0.244   3.601 -0.1444 -0.6407  0.2749
  295EMI    C01 5587   3.929   0.066   3.251  1.0330 -0.1719  0.1567
  295EMI    C04 5588   3.797   0.234   3.253 -0.2473 -0.8973  0.1594
  295EMI    C03 5589   3.779   0.177   3.137 -0.2190  0.2308 -0.4753
  295EMI    H07 5590   4.012   0.003   3.273  1.3895  0.9121  2.2020
  295EMI    H09 5591   3.758   0.322   3.301  0.6922  0.2300 -1.0717
  295EMI    H08 5592   3.702   0.197   3.067 -1.5858 -2.5687  0.0883
  295EMI    C05 5593   3.898  -0.015   3.019 -0.4026  0.2586  0.3609
  295EMI    H0B 5594   3.802  -0.042   2.979  0.2974  0.0147 -1.2103
  295EMI    H0C 5595   3.965   0.022   2.943  1.2190 -0.6959  1.2564
  295EMI    H0D 5596   3.952  -0.096   3.066 -1.6182 -0.7085  0.1258
  295EMI    N00 5597   3.877   0.079   3.131 -0.5271  0.2917  0.4673
  295EMI    C06 5598   3.921   0.181   3.464 -0.2917 -1.2779 -0.2207
  295EMI    H0F 5599   3.842   0.231   3.518  1.7175  0.9273  0.8370
  295EMI    C0N 5600   3.964   0.052   3.531  0.5089 -0.2832 -0.4493
  295EMI    H0O 5601   4.055   0.001   3.504  1.2455  0.8520 -0.2005
  295EMI    H0P 5602   3.976   0.073   3.636  2.0693  0.1608 -0.6933
  295EMI    H0Q 5603   3.883  -0.017   3.513  1.3043 -1.0069 -1.3744
  295EMI    N02 5604   3.894   0.169   3.321  0.2757  0.4765 -0.1957
  295EMI    H0E 5605   4.007   0.245   3.473 -0.1297 -1.7204  1.6670
  296EMI    C01 5606   2.634   3.127   3.067 -0.2215  0.6974  0.3508
  296EMI    C04 5607   2.832   3.111   3.144 -0.0664  0.0719  0.9366
  296EMI    C03 5608   2.835   3.066   3.019 -0.5516  0.6798 -0.6179
  296EMI    H07 5609   2.529   3.143   3.056 -0.4458 -0.4867  0.5922
  296EMI    H09 5610   2.922   3.132   3.198  0.4301 -1.9540  0.9420
  296EMI    H08 5611   2.918   3.026   2.966 -2.0986 -0.7934 -2.0331
  296EMI    C05 5612   2.656   3.027   2.844  0.9264  0.5982  0.1492
  296EMI    H0B 5613   2.718   3.076   2.769 -1.1700  1.3704 -1.1655
  296EMI    H0C 5614   2.667   2.921   2.829 -3.4991 -0.1541  0.9791
  296EMI    H0D 5615   2.549   3.040   2.835  0.8270 -0.6554 -0.7051
  296EMI    N00 5616   2.706   3.066   2.973 -1.0156  0.1034  0.0597
  296EMI    C06 5617   2.649   3.233   3.283  0.4527  0.4956 -0.4955
  296EMI    H0F 5618   2.545   3.255   3.262  0.1430 -0.5989 -0.1850
  296EMI    C0N 5619   2.659   3.149   3.408 -0.2183 -0.2490  0.3150
  296EMI    H0O 5620   2.579   3.165   3.480 -1.4400 -3.6749 -0.0555
  296EMI    H0P 5621   2.666   3.049   3.365 -4.7813  0.8428 -3.9152
  296EMI    H0Q 5622   2.753   3.169   3.458  1.8060 -0.6133 -3.0235
  296EMI    N02 5623   2.705   3.169   3.164 -0.3062 -1.2369 -0.0465
  296EMI    H0E 5624   2.702   3.326   3.296 -1.5835  1.3215  3.7020
  297EMI    C01 5625   4.041   3.393   1.726  0.4431  0.3649 -0.0664
  297EMI    C04 5626   4.221   3.283   1.672  0.0267 -0.3966  0.3811
  297EMI    C03 5627   4.230   3.398   1.613  0.2168 -0.7132  0.1491
  297EMI    H07 5628   3.965   3.438   1.786  0.5793 -0.9672  1.1556
  297EMI    H09 5629   4.281   3.195   1.666 -0.3632 -0.5355 -2.3802
  297EMI    H08 5630   4.302   3.447   1.551  0.8188  0.1532  1.4940
  297EMI    C05 5631   4.063   3.584   1.575  0.3336  0.9470  0.2411
  297EMI    H0B 5632   4.153   3.639   1.553  2.2388 -2.4985 -1.3200
  297EMI    H0C 5633   4.011   3.560   1.483  1.5723  2.5430 -0.9217
  297EMI    H0D 5634   3.985   3.630   1.634  0.2497  4.3779 -2.2527
  297EMI    N00 5635   4.108   3.457   1.637 -0.0009  0.0397  0.1128
  297EMI    C06 5636   4.069   3.186   1.855  0.0066  0.1797  0.1946
  297EMI    H0F 5637   3.997   3.242   1.913  2.3893  2.3253  1.2522
  297EMI    C0N 5638   4.005   3.061   1.798 -0.2053 -0.4803 -0.3802
  297EMI    H0O 5639   3.922   3.075   1.730 -0.5696  0.4773  0.2325
  297EMI    H0P 5640   4.079   3.007   1.741 -0.3168 -0.0655 -0.9217
  297EMI    H0Q 5641   3.971   2.998   1.880 -1.6711 -0.8904 -1.2623
  297EMI    N02 5642   4.105   3.283   1.750 -0.1373 -0.3821  0.7954
  297EMI    H0E 5643   4.162   3.178   1.910  0.0415 -3.6857 -0.1462
  298EMI    C01 5644   1.590   0.767   1.846 -0.0203 -0.4820 -0.0117
  298EMI    C04 5645   1.728   0.597   1.848 -0.7624  0.8401  0.1670
  298EMI    C03 5646   1.633   0.565   1.762  0.1697 -0.2412  0.6802
  298EMI    H07 5647   1.543   0.861   1.868  0.5299  0.9112 -3.8766
  298EMI    H09 5648   1.820   0.547   1.868 -0.5948  1.1035  0.0572
  298EMI    H08 5649   1.615   0.477   1.705  2.1075 -1.6375  2.1118
  298EMI    C05 5650   1.421   0.696   1.686  0.3367 -0.1181 -0.1977
  298EMI    H0B 5651   1.401   0.628   1.605  4.6172  0.3594 -1.9326
  298EMI    H0C 5652   1.342   0.700   1.759 -1.5692  3.2526 -2.1994
  298EMI    H0D 5653   1.424   0.791   1.635 -2.9612  0.9277  1.3309
  298EMI    N00 5654   1.540   0.673   1.763  0.1945  0.0967 -0.5709
  298EMI    C06 5655   1.789   0.794   2.004 -0.0181  0.2951 -0.0536
  298EMI    H0F 5656   1.754   0.775   2.104 -0.8222  1.8486 -0.0164
  298EMI    C0N 5657   1.939   0.749   1.992  0.4330 -0.1447  0.0434
  298EMI    H0O 5658   2.002   0.834   2.017  0.9816 -1.1552  2.3227
  298EMI    H0P 5659   1.948   0.664   2.059  1.5274 -0.6147 -0.6555
  298EMI    H0Q 5660   1.957   0.711   1.892 -0.6020 -2.5922  0.7011
  298EMI    N02 5661   1.696   0.720   1.909 -0.1327 -0.7213 -0.1336
  298EMI    H0E 5662   1.784   0.899   1.978 -0.5322  0.1244 -0.6981
  299EMI    C01 5663   2.118   1.505   2.251 -0.4102  0.2244 -0.0439
  299EMI    C04 5664   2.327   1.587   2.234 -0.9134 -0.7589 -0.9583
  299EMI    C03 5665   2.325   1.492   2.328  0.3144  0.4449 -0.0108
  299EMI    H07 5666   2.013   1.485   2.250  0.0251 -2.7361  1.5893
  299EMI    H09 5667   2.403   1.660   2.211 -0.1974 -0.2622  2.4615
  299EMI    H08 5668   2.405   1.472   2.395  0.9884  3.5557  0.2738
  299EMI    C05 5669   2.149   1.340   2.433  0.7898 -0.7082 -0.0710
  299EMI    H0B 5670   2.045   1.351   2.458  1.2630  1.2935  1.3100
  299EMI    H0C 5671   2.165   1.245   2.385  2.3153 -0.1416 -0.7753
  299EMI    H0D 5672   2.204   1.354   2.525  1.6272  1.3435 -0.8177
  299EMI    N00 5673   2.194   1.442   2.340 -0.7171 -1.0050 -0.3670
  299EMI    C06 5674   2.154   1.676   2.075  0.2162 -0.5284  0.8719
  299EMI    H0F 5675   2.046   1.667   2.079  0.0301  1.4138  1.2468
  299EMI    C0N 5676   2.174   1.826   2.100  0.0376  0.1857  0.3231
  299EMI    H0O 5677   2.101   1.830   2.180  2.1765 -2.4377  2.6292
  299EMI    H0P 5678   2.273   1.853   2.134 -0.0807 -0.3276  1.0895
  299EMI    H0Q 5679   2.131   1.887   2.021 -0.2785  2.3144  2.0616
  299EMI    N02 5680   2.197   1.587   2.184 -0.0415 -0.0237 -0.2701
  299EMI    H0E 5681   2.198   1.655   1.978  0.9163  0.4235  0.9674
  300EMI    C01 5682   2.139   1.977   1.152  0.3244  0.2092  0.1108
  300EMI    C04 5683   2.322   1.893   1.223  0.1202 -0.1406 -0.6067
  300EMI    C03 5684   2.351   2.016   1.188  0.0732 -0.3481  0.2730
  300EMI    H07 5685   2.041   2.011   1.125  0.7033  0.6803 -0.6696
  300EMI    H09 5686   2.387   1.819   1.264 -1.2212 -0.2904  1.3852
  300EMI    H08 5687   2.441   2.073   1.198  0.9504 -1.3151 -1.5153
  300EMI    C05 5688   2.212   2.207   1.087 -0.4984  0.7284 -0.1436
  300EMI    H0B 5689   2.194   2.209   0.980  0.6682  0.6349 -0.3533
  300EMI    H0C 5690   2.123   2.253   1.127 -2.0512 -1.1793 -1.1665
  300EMI    H0D 5691   2.303   2.261   1.106  0.5388  0.4222 -3.5409
  300EMI    N00 5692   2.231   2.071   1.145  0.5920  0.0409 -0.0615
  300EMI    C06 5693   2.118   1.739   1.229  0.5148 -0.3761  0.3582
  300EMI    H0F 5694   2.180   1.667   1.281 -0.8168 -0.4963  1.8273
  300EMI    C0N 5695   1.990   1.748   1.306  0.1718  0.4574  0.0168
  300EMI    H0O 5696   1.964   1.646   1.331 -0.9605  0.7107 -0.0852
  300EMI    H0P 5697   2.003   1.805   1.397  0.8206  0.6136 -0.1725
  300EMI    H0Q 5698   1.908   1.792   1.250  0.9769  2.3930  0.2874
  300EMI    N02 5699   2.189   1.867   1.201  0.8266  0.7991  0.2944
  300EMI    H0E 5700   2.101   1.700   1.129 -2.7189 -1.2103  1.1055
  301EMI    C01 5701   0.158   3.827   4.425 -0.4551 -0.2332  0.5124
  301EMI    C04 5702  -0.056   3.860   4.408  0.5791 -0.6296  0.5562
  301EMI    C03 5703  -0.001   3.906   4.297 -0.0316  0.3243  0.0079
  301EMI    H07 5704   0.251   3.809   4.475  0.3712  1.5990 -0.2600
  301EMI    H09 5705  -0.161   3.856   4.431  0.6399  1.7165  1.5335
  301EMI    H08 5706  -0.048   3.945   4.210 -1.2341  0.4228  0.6890
  301EMI    C05 5707   0.243   3.921   4.209  0.1615  0.4403  0.4029
  301EMI    H0B 5708   0.188   3.968   4.129 -1.2577 -0.3879  0.8500
  301EMI    H0C 5709   0.305   3.989   4.266  0.8495 -1.4958  2.0828
  301EMI    H0D 5710   0.289   3.833   4.168 -0.2593  0.1738  0.4925
  301EMI    N00 5711   0.138   3.883   4.305 -0.7084  0.4686 -0.3529
  301EMI    C06 5712   0.032   3.713   4.604  0.3268  0.4272 -0.0514
  301EMI    H0F 5713  -0.062   3.727   4.656 -1.2344 -1.5736 -2.1150
  301EMI    C0N 5714   0.034   3.566   4.567 -0.2391 -0.1166  0.0488
  301EMI    H0O 5715   0.045   3.492   4.645 -0.1705  1.1669  1.2926
  301EMI    H0P 5716  -0.057   3.545   4.512  0.0115 -1.5463  0.1403
  301EMI    H0Q 5717   0.120   3.550   4.503  0.7352  2.5268  0.5642
  301EMI    N02 5718   0.042   3.803   4.484 -0.5573  0.1064  0.1061
  301EMI    H0E 5719   0.107   3.746   4.674 -1.5526  0.1253  2.2550
  302EMI    C01 5720   4.680   1.193   1.944 -0.5326 -0.3529  0.4365
  302EMI    C04 5721   4.583   1.293   1.769  0.7985 -0.5881 -0.0197
  302EMI    C03 5722   4.711   1.332   1.781 -0.0012 -0.2197  0.5542
  302EMI    H07 5723   4.707   1.119   2.016 -0.7642  0.5983  1.5270
  302EMI    H09 5724   4.507   1.334   1.706 -1.4977 -1.2768  2.1363
  302EMI    H08 5725   4.770   1.400   1.725  0.9206 -1.1410  0.3841
  302EMI    C05 5726   4.905   1.293   1.948 -0.1149 -0.7729 -0.1936
  302EMI    H0B 5727   4.944   1.199   1.986 -0.9950 -1.0684 -0.0004
  302EMI    H0C 5728   4.969   1.326   1.868  1.6639 -0.4166  1.2881
  302EMI    H0D 5729   4.910   1.372   2.022  0.2303 -1.3684  0.4395
  302EMI    N00 5730   4.768   1.275   1.889  0.5898 -0.3684 -0.2325
  302EMI    C06 5731   4.448   1.128   1.903 -0.1044  0.2827 -0.3781
  302EMI    H0F 5732   4.461   1.087   2.002 -0.4937 -1.4883 -1.0215
  302EMI    C0N 5733   4.328   1.215   1.894 -0.3194  0.0558 -0.0035
  302EMI    H0O 5734   4.239   1.157   1.915 -2.0312  2.3724 -0.3901
  302EMI    H0P 5735   4.333   1.292   1.971 -0.2849 -0.2295  0.2829
  302EMI    H0Q 5736   4.317   1.258   1.795 -0.6307  0.1130  0.0550
  302EMI    N02 5737   4.572   1.197   1.871  0.0526 -0.5040  0.6514
  302EMI    H0E 5738   4.452   1.045   1.834 -0.9359  0.2319 -0.3736
  303EMI    C01 5739   2.847   1.888   0.125 -0.2398  1.2965  0.3562
  303EMI    C04 5740   2.817   1.995  -0.058 -0.4111  0.1855  0.5562
  303EMI    C03 5741   2.950   1.978  -0.046 -0.2720 -0.3823 -0.0410
  303EMI    H07 5742   2.824   1.843   0.219 -1.9876  0.4602 -0.4311
  303EMI    H09 5743   2.754   2.024  -0.139 -0.3407  1.1276  0.8251
  303EMI    H08 5744   3.026   1.993  -0.119  0.1739 -1.2700  0.2268
  303EMI    C05 5745   3.090   1.848   0.135 -0.0417  0.1122  0.1581
  303EMI    H0B 5746   3.076   1.741   0.135 -0.5902  0.1771 -0.2792
  303EMI    H0C 5747   3.169   1.874   0.066  0.3992  0.5393  0.8113
  303EMI    H0D 5748   3.097   1.870   0.240 -0.0476  0.3986  0.0991
  303EMI    N00 5749   2.965   1.913   0.077  0.8552 -0.1800  0.1610
  303EMI    C06 5750   2.610   1.940   0.067 -0.2842 -0.5047  0.3176
  303EMI    H0F 5751   2.587   1.969   0.169  0.4958  1.2468  0.0299
  303EMI    C0N 5752   2.523   2.018  -0.029  0.3636 -0.4096 -0.6222
  303EMI    H0O 5753   2.420   2.015   0.005  0.4743 -1.6595 -0.3783
  303EMI    H0P 5754   2.551   2.123  -0.021  2.3141 -0.9707  0.2681
  303EMI    H0Q 5755   2.522   1.974  -0.128  2.3394 -0.6315 -0.5799
  303EMI    N02 5756   2.757   1.946   0.053  0.9843 -0.6353  0.8127
  303EMI    H0E 5757   2.586   1.836   0.049 -0.1217 -0.3875 -0.6272
  304EMI    C01 5758   0.128   3.107   3.889 -0.3914  0.2510  0.0055
  304EMI    C04 5759   0.301   3.075   3.762 -0.1609 -0.2481 -0.2507
  304EMI    C03 5760   0.341   3.068   3.888  0.1842 -0.0709 -1.1046
  304EMI    H07 5761   0.027   3.115   3.925 -1.1116  0.0053 -1.8455
  304EMI    H09 5762   0.354   3.043   3.675  0.6857  0.5659 -0.0567
  304EMI    H08 5763   0.438   3.044   3.928 -1.8931 -2.3533  3.2312
  304EMI    C05 5764   0.226   3.046   4.111  0.0126  0.1349  0.0416
  304EMI    H0B 5765   0.212   3.136   4.168 -0.7157  0.0773 -0.0385
  304EMI    H0C 5766   0.141   2.985   4.138  0.4286 -0.0649  0.9591
  304EMI    H0D 5767   0.322   3.002   4.134 -0.7040 -1.7390 -0.4146
  304EMI    N00 5768   0.231   3.085   3.968  0.1661  0.1421  0.1286
  304EMI    C06 5769   0.087   3.150   3.645  0.0771  0.5451 -0.2506
  304EMI    H0F 5770   0.047   3.064   3.593 -1.1466  0.7115  0.3804
  304EMI    C0N 5771  -0.032   3.241   3.675 -0.0397 -0.0276 -0.6082
  304EMI    H0O 5772  -0.120   3.198   3.720  0.2948  0.6656  0.7564
  304EMI    H0P 5773  -0.006   3.328   3.735 -0.5481  0.4254 -1.0323
  304EMI    H0Q 5774  -0.069   3.293   3.587  0.7517  1.7148  0.0271
  304EMI    N02 5775   0.167   3.111   3.763 -0.8757  0.7950 -0.0005
  304EMI    H0E 5776   0.162   3.201   3.586  1.4780 -1.2718 -0.1397
  305EMI    C01 5777   1.192   4.159   3.499  0.9429 -0.2841 -0.5305
  305EMI    C04 5778   1.037   4.071   3.382 -0.1946  0.8870  0.2787
  305EMI    C03 5779   1.156   4.020   3.341 -0.3497 -0.0624  0.8429
  305EMI    H07 5780   1.235   4.238   3.558 -1.6010 -0.0116  1.1171
  305EMI    H09 5781   0.936   4.064   3.348 -0.2569  0.7468  0.4933
  305EMI    H08 5782   1.185   3.958   3.259  0.6034 -0.2126  1.2774
  305EMI    C05 5783   1.390   4.018   3.444 -0.2217 -0.3676 -0.7491
  305EMI    H0B 5784   1.449   4.024   3.354  1.4430 -2.9541  0.0450
  305EMI    H0C 5785   1.441   4.063   3.528 -0.2972 -0.8477 -0.4430
  305EMI    H0D 5786   1.379   3.918   3.484 -0.2932  0.2209  0.7528
  305EMI    N00 5787   1.250   4.071   3.426  0.3220  0.1858  0.4059
  305EMI    C06 5788   0.964   4.243   3.550  0.2114  0.1994  0.3408
  305EMI    H0F 5789   0.904   4.296   3.477  1.0210  2.0906  0.9712
  305EMI    C0N 5790   0.862   4.162   3.642  0.1521  0.7639  0.2983
  305EMI    H0O 5791   0.777   4.214   3.685  0.4885 -0.1045  2.0997
  305EMI    H0P 5792   0.829   4.067   3.602  2.2388 -0.1389  0.5740
  305EMI    H0Q 5793   0.925   4.144   3.729 -0.5030  2.6025  1.1867
  305EMI    N02 5794   1.063   4.162   3.480  0.2024  0.2466  0.1190
  305EMI    H0E 5795   1.020   4.320   3.602  1.5957 -1.3069  1.1682
  306EMI    C01 5796   2.533   2.356   0.267 -0.2039  0.9069  0.7595
  306EMI    C04 5797   2.675   2.211   0.352 -0.1528 -0.1158  0.3927
  306EMI    C03 5798   2.559   2.193   0.408 -0.4421  0.2816 -0.3929
  306EMI    H07 5799   2.486   2.437   0.215 -1.5458  2.3354  3.9079
  306EMI    H09 5800   2.769   2.161   0.364 -0.1018  0.3900  2.5597
  306EMI    H08 5801   2.535   2.123   0.485  1.1204 -0.1853 -0.2925
  306EMI    C05 5802   2.330   2.276   0.374  0.3844 -0.9310 -0.5374
  306EMI    H0B 5803   2.285   2.182   0.346  0.8952 -1.2799 -0.1982
  306EMI    H0C 5804   2.292   2.328   0.461  0.7296  2.2852 -2.1706
  306EMI    H0D 5805   2.279   2.332   0.297  0.5571 -1.0812 -0.7600
  306EMI    N00 5806   2.470   2.279   0.344 -0.0555 -0.2914 -0.7422
  306EMI    C06 5807   2.771   2.353   0.173 -0.5740  0.0164  0.1210
  306EMI    H0F 5808   2.739   2.405   0.084  0.3533  0.6250  0.1290
  306EMI    C0N 5809   2.871   2.431   0.259  0.0979 -0.1762  0.0416
  306EMI    H0O 5810   2.896   2.368   0.344 -0.1685  0.3216  0.4925
  306EMI    H0P 5811   2.958   2.448   0.197  0.4415 -0.4711  0.4343
  306EMI    H0Q 5812   2.842   2.531   0.288  1.4227  0.0101  0.7903
  306EMI    N02 5813   2.659   2.311   0.258 -0.2231  0.1811 -0.4297
  306EMI    H0E 5814   2.814   2.259   0.143 -0.6770 -0.3160  0.9956
  307EMI    C01 5815   0.258   0.716   0.999 -0.0990  0.0345  0.5391
  307EMI    C04 5816   0.388   0.790   1.158  0.3912  0.1213 -0.5471
  307EMI    C03 5817   0.465   0.785   1.046  0.7458  0.3825  0.3569
  307EMI    H07 5818   0.170   0.677   0.953 -0.2064 -2.3362  2.5438
  307EMI    H09 5819   0.416   0.823   1.255 -1.4931 -0.2131  0.1546
  307EMI    H08 5820   0.564   0.820   1.025 -0.1901  2.5131 -0.8211
  307EMI    C05 5821   0.410   0.725   0.801  1.1618  0.2785  0.3368
  307EMI    H0B 5822   0.364   0.809   0.751 -0.7768 -1.7528 -1.5353
  307EMI    H0C 5823   0.514   0.707   0.777  1.4384 -1.3149  2.4815
  307EMI    H0D 5824   0.358   0.634   0.775  4.2574 -2.6365  3.2794
  307EMI    N00 5825   0.379   0.740   0.945  0.2239  0.3623  0.7816
  307EMI    C06 5826   0.164   0.710   1.229 -0.1903 -0.3155 -0.0086
  307EMI    H0F 5827   0.072   0.684   1.178 -0.7388  0.3805  0.5937
  307EMI    C0N 5828   0.196   0.603   1.331  0.6063 -0.2074  0.0316
  307EMI    H0O 5829   0.291   0.625   1.379  0.7715 -1.5336  0.3734
  307EMI    H0P 5830   0.118   0.594   1.406  1.2611  1.3022  0.9535
  307EMI    H0Q 5831   0.212   0.509   1.280 -0.8181 -0.2834 -0.3040
  307EMI    N02 5832   0.264   0.745   1.126 -0.0789 -0.4471  0.5265
  307EMI    H0E 5833   0.125   0.801   1.273 -0.2082  1.0043 -2.5586
  308EMI    C01 5834   2.887   0.181   2.862  0.0289  0.2780  0.4067
  308EMI    C04 5835   2.762   0.233   2.696 -0.7315  0.5576 -0.0913
  308EMI    C03 5836   2.886   0.210   2.649  0.1507  0.3024 -0.6746
  308EMI    H07 5837   2.923   0.151   2.958  1.4320  1.9268  0.4484
  308EMI    H09 5838   2.682   0.285   2.648  1.1698  2.1230 -1.7385
  308EMI    H08 5839   2.920   0.220   2.548  0.7303 -2.4737 -0.8175
  308EMI    C05 5840   3.082   0.077   2.741  0.5128  0.1118  0.4170
  308EMI    H0B 5841   3.084   0.024   2.835  0.5196  0.4245  0.5953
  308EMI    H0C 5842   3.073  -0.002   2.668  0.5935  0.1409  0.3754
  308EMI    H0D 5843   3.169   0.137   2.723  1.2293 -1.3959 -1.4473
  308EMI    N00 5844   2.959   0.157   2.754 -0.1770 -0.0691  0.1314
  308EMI    C06 5845   2.653   0.272   2.915 -0.4154  0.5524 -0.0888
  308EMI    H0F 5846   2.561   0.227   2.878  0.7071 -2.5405  0.5430
  308EMI    C0N 5847   2.683   0.259   3.069  0.0773  0.0694 -1.2406
  308EMI    H0O 5848   2.614   0.316   3.131 -0.9263 -1.0087 -1.3208
  308EMI    H0P 5849   2.694   0.157   3.103  2.2967  0.8741  0.7278
  308EMI    H0Q 5850   2.784   0.294   3.086 -1.1767  3.1737  0.9493
  308EMI    N02 5851   2.762   0.217   2.831  0.6416  0.0564 -0.4253
  308EMI    H0E 5852   2.650   0.375   2.885 -0.6473  0.0750 -1.8306
  309EMI    C01 5853   4.730   4.580   4.468 -0.1118 -0.4914 -0.2513
  309EMI    C04 5854   4.827   4.760   4.407  0.0196 -0.0987 -0.3304
  309EMI    C03 5855   4.911   4.696   4.486  0.0419  0.5062  0.5564
  309EMI    H07 5856   4.661   4.498   4.472  0.2743 -0.9085 -1.6371
  309EMI    H09 5857   4.840   4.855   4.360  0.0224  0.9207  1.6220
  309EMI    H08 5858   5.001   4.725   4.536  0.1623 -0.3423  0.8439
  309EMI    C05 5859   4.898   4.492   4.629 -0.5884  0.3076 -0.2898
  309EMI    H0B 5860   4.825   4.425   4.671  0.0502 -0.0808  0.2227
  309EMI    H0C 5861   4.985   4.441   4.592  0.3212 -0.1228  2.2746
  309EMI    H0D 5862   4.935   4.542   4.717 -1.8824  0.4802  0.1839
  309EMI    N00 5863   4.844   4.587   4.528  0.2359  0.2662  0.1990
  309EMI    C06 5864   4.626   4.709   4.281  0.5239  0.1023  0.1294
  309EMI    H0F 5865   4.557   4.787   4.309  0.5446  0.5162 -0.9301
  309EMI    C0N 5866   4.698   4.747   4.153  0.5233 -0.0583 -0.7762
  309EMI    H0O 5867   4.772   4.670   4.132 -0.5829 -1.5303  0.4825
  309EMI    H0P 5868   4.636   4.752   4.065 -1.5596 -0.6894  0.5944
  309EMI    H0Q 5869   4.742   4.844   4.170 -1.2035  0.7092 -0.4873
  309EMI    N02 5870   4.719   4.683   4.391  0.0758  0.5562  0.5716
  309EMI    H0E 5871   4.565   4.619   4.273  0.8630 -0.3249  1.8660
  310EMI    C01 5872   3.705   4.377   3.820  0.1767  0.5145 -0.1052
  310EMI    C04 5873   3.825   4.200   3.781 -0.0445 -0.7219  0.8569
  310EMI    C03 5874   3.809   4.265   3.662  0.5024 -0.1932  0.5921
  310EMI    H07 5875   3.660   4.461   3.868  0.0492  1.6143 -2.0639
  310EMI    H09 5876   3.882   4.113   3.807 -0.2952 -1.1671 -0.0323
  310EMI    H08 5877   3.841   4.237   3.564 -0.2321 -1.1749  0.6101
  310EMI    C05 5878   3.713   4.486   3.590 -0.2717  0.3554 -0.3434
  310EMI    H0B 5879   3.667   4.570   3.639 -0.0019  0.7496 -0.7591
  310EMI    H0C 5880   3.810   4.515   3.551 -0.3959 -0.7568 -1.5681
  310EMI    H0D 5881   3.657   4.467   3.500 -0.8025  0.1439  0.0306
  310EMI    N00 5882   3.733   4.375   3.692 -0.2501  0.1116  0.5812
  310EMI    C06 5883   3.758   4.237   4.028 -0.3866  0.1264  0.0310
  310EMI    H0F 5884   3.673   4.173   4.049 -1.1046  0.6295 -1.2382
  310EMI    C0N 5885   3.876   4.156   4.075 -0.3526  0.2488  0.2239
  310EMI    H0O 5886   3.880   4.154   4.184  3.3039 -2.1655  0.2352
  310EMI    H0P 5887   3.863   4.054   4.042 -0.7052  1.1484 -2.6292
  310EMI    H0Q 5888   3.979   4.182   4.053 -0.4293  0.4819  0.1380
  310EMI    N02 5889   3.755   4.265   3.879 -0.2906 -0.0795 -0.6306
  310EMI    H0E 5890   3.751   4.316   4.102  0.1448 -2.0301  2.5621
  311EMI    C01 5891   3.379   2.925   5.123 -0.2759  0.5962  0.7705
  311EMI    C04 5892   3.417   2.780   4.964 -0.6460  0.3895  0.2748
  311EMI    C03 5893   3.332   2.870   4.916  0.6660 -0.1269 -0.0504
  311EMI    H07 5894   3.376   2.982   5.213  3.0710  3.1329 -0.5150
  311EMI    H09 5895   3.443   2.685   4.924  0.3068  0.6460  0.2637
  311EMI    H08 5896   3.284   2.877   4.821  2.8288  2.4042 -1.0837
  311EMI    C05 5897   3.237   3.084   4.994  0.5768  0.2727  0.3034
  311EMI    H0B 5898   3.215   3.108   4.891  1.5955  2.8627  0.6222
  311EMI    H0C 5899   3.137   3.056   5.026  0.2322  0.0745 -0.9095
  311EMI    H0D 5900   3.279   3.166   5.050 -0.8279 -0.0092  1.8714
  311EMI    N00 5901   3.324   2.968   5.007 -0.6766  0.0147 -0.6162
  311EMI    C06 5902   3.515   2.719   5.192  0.3761  0.5692 -0.4429
  311EMI    H0F 5903   3.504   2.766   5.288  0.3893  0.8932 -0.5969
  311EMI    C0N 5904   3.452   2.579   5.189 -0.2900 -0.6141  1.3155
  311EMI    H0O 5905   3.488   2.540   5.283  1.5522  1.0843  1.3837
  311EMI    H0P 5906   3.344   2.576   5.176 -0.3100 -1.4661  1.5927
  311EMI    H0Q 5907   3.503   2.527   5.108 -0.4726  0.2592  0.6231
  311EMI    N02 5908   3.444   2.811   5.094  0.1507  0.3782 -0.0723
  311EMI    H0E 5909   3.621   2.728   5.172  0.4597 -0.2363 -0.4006
  312EMI    C01 5910   4.316   4.128   1.894 -0.6465 -0.5155 -0.7590
  312EMI    C04 5911   4.346   3.920   1.927  0.2662  0.8727 -0.6052
  312EMI    C03 5912   4.426   3.982   2.014 -0.5272 -0.2881 -0.7823
  312EMI    H07 5913   4.271   4.220   1.863 -1.6098  0.1420  2.2842
  312EMI    H09 5914   4.336   3.815   1.909 -1.2838  0.8076  0.4359
  312EMI    H08 5915   4.478   3.940   2.097 -0.7783 -0.7965 -0.8742
  312EMI    C05 5916   4.471   4.227   2.053 -0.2761  0.0440  0.0362
  312EMI    H0B 5917   4.407   4.313   2.040  1.1092  1.2533  0.8903
  312EMI    H0C 5918   4.492   4.211   2.158  1.5585  0.4028 -0.2443
  312EMI    H0D 5919   4.564   4.225   1.999 -0.0371 -2.9143  0.4399
  312EMI    N00 5920   4.412   4.113   1.985  0.7097 -0.4001  0.7958
  312EMI    C06 5921   4.166   3.995   1.769  0.2759 -0.1826  0.5887
  312EMI    H0F 5922   4.210   4.006   1.671 -0.5860  1.8747  0.3868
  312EMI    C0N 5923   4.103   3.862   1.794 -0.1100 -0.1999 -0.2353
  312EMI    H0O 5924   4.090   3.850   1.901  0.9709 -0.1304 -0.0873
  312EMI    H0P 5925   4.011   3.857   1.736  0.3357  0.6307 -1.0291
  312EMI    H0Q 5926   4.171   3.782   1.767  3.1100  1.8814  1.1596
  312EMI    N02 5927   4.280   4.011   1.854  0.0769 -0.8675  0.3012
  312EMI    H0E 5928   4.088   4.067   1.790  0.5270  0.5370 -0.8202
  313EMI    C01 5929   1.293   4.545   2.976 -0.2380 -0.4756 -0.0063
  313EMI    C04 5930   1.294   4.347   2.878 -0.2973 -0.5617  0.3865
  313EMI    C03 5931   1.419   4.395   2.878 -0.0029  0.4834  0.1509
  313EMI    H07 5932   1.267   4.632   3.033 -1.9046 -1.4072  0.7100
  313EMI    H09 5933   1.244   4.258   2.846 -0.6025 -0.0442 -0.6434
  313EMI    H08 5934   1.507   4.365   2.826 -1.9215 -0.5423 -2.7321
  313EMI    C05 5935   1.533   4.601   2.977  0.3876 -0.7566 -0.2506
  313EMI    H0B 5936   1.569   4.570   3.074  1.6617  3.7803  0.9379
  313EMI    H0C 5937   1.615   4.582   2.910  2.8694 -3.3450  3.1280
  313EMI    H0D 5938   1.496   4.702   2.980 -2.0393 -1.5704  0.0213
  313EMI    N00 5939   1.414   4.522   2.936  0.8487 -0.2615  0.1757
  313EMI    C06 5940   1.094   4.403   3.013 -0.1100 -0.2100 -0.5783
  313EMI    H0F 5941   1.013   4.384   2.944 -0.5400 -2.0570  0.3588
  313EMI    C0N 5942   1.116   4.283   3.105 -0.6315  0.1162 -0.1585
  313EMI    H0O 5943   1.022   4.261   3.153  0.2466  0.0878  1.6221
  313EMI    H0P 5944   1.145   4.198   3.043  3.1033 -0.2213  1.7899
  313EMI    H0Q 5945   1.194   4.295   3.180 -1.9466  0.2181  1.2348
  313EMI    N02 5946   1.219   4.440   2.948  0.4899 -0.3750  0.1793
  313EMI    H0E 5947   1.062   4.484   3.077 -2.1913 -1.1743 -0.3055
  314EMI    C01 5948   2.817   0.078   2.274 -0.3010 -0.0188 -0.7675
  314EMI    C04 5949   2.727  -0.089   2.384 -0.1808 -0.1417  0.4152
  314EMI    C03 5950   2.636   0.001   2.361  0.2839  0.7746  0.9912
  314EMI    H07 5951   2.890   0.141   2.229 -0.6720  0.3045 -0.9244
  314EMI    H09 5952   2.711  -0.184   2.431 -2.2824  0.6897  1.5360
  314EMI    H08 5953   2.531  -0.002   2.380 -0.0504 -0.0674 -0.7537
  314EMI    C05 5954   2.623   0.227   2.238 -0.3680  0.2005 -0.4935
  314EMI    H0B 5955   2.521   0.227   2.271 -0.2401  2.0555  0.0098
  314EMI    H0C 5956   2.662   0.319   2.279  1.9709 -0.6506 -0.5993
  314EMI    H0D 5957   2.626   0.217   2.130 -0.7584 -0.5989 -0.4366
  314EMI    N00 5958   2.695   0.111   2.296 -0.0125 -0.0719 -0.6615
  314EMI    C06 5959   2.977  -0.089   2.356 -0.0578  0.0067 -0.1933
  314EMI    H0F 5960   3.028  -0.070   2.449  1.1204 -1.7161 -0.4493
  314EMI    C0N 5961   2.963  -0.240   2.331  0.1389  0.0217 -0.6809
  314EMI    H0O 5962   2.903  -0.283   2.411  0.9337  0.4120  0.1497
  314EMI    H0P 5963   2.912  -0.263   2.239  2.2731 -0.5221 -1.7748
  314EMI    H0Q 5964   3.058  -0.292   2.331  0.3962  0.3847  1.3311
  314EMI    N02 5965   2.846  -0.032   2.345  0.7734  0.5838 -0.0159
  314EMI    H0E 5966   3.048  -0.048   2.285  0.5673 -0.9189 -0.1190
  315EMI    C01 5967   2.802   2.304   0.717 -0.2506 -0.2503 -0.6416
  315EMI    C04 5968   2.935   2.180   0.839 -0.5204 -0.2453  0.2863
  315EMI    C03 5969   2.977   2.312   0.833 -0.4685 -0.0277 -0.5519
  315EMI    H07 5970   2.719   2.334   0.656  0.1305 -1.0833 -1.6077
  315EMI    H09 5971   2.979   2.088   0.872  1.2950  0.1926 -0.7814
  315EMI    H08 5972   3.064   2.359   0.873  1.8348 -1.3504 -3.5785
  315EMI    C05 5973   2.894   2.533   0.747  0.4186 -0.4393  0.2505
  315EMI    H0B 5974   2.815   2.575   0.686 -0.1816 -1.5406  0.2400
  315EMI    H0C 5975   2.884   2.572   0.848  1.3764  0.0816  0.1519
  315EMI    H0D 5976   2.995   2.566   0.727  0.3336  0.1817  0.7866
  315EMI    N00 5977   2.886   2.392   0.763  0.1806 -0.1990  0.0944
  315EMI    C06 5978   2.743   2.054   0.718  0.2724  0.5989 -0.4730
  315EMI    H0F 5979   2.794   2.003   0.638  0.3319  1.9492 -1.3297
  315EMI    C0N 5980   2.713   1.964   0.834 -0.0214  0.1024  0.6688
  315EMI    H0O 5981   2.639   1.887   0.816 -1.1362  0.5252  3.0702
  315EMI    H0P 5982   2.800   1.911   0.873  1.9861  1.5970 -1.4941
  315EMI    H0Q 5983   2.673   2.028   0.912 -0.0127 -0.3250  1.0273
  315EMI    N02 5984   2.824   2.179   0.760 -0.5280 -0.4584 -0.5608
  315EMI    H0E 5985   2.644   2.073   0.679 -0.6692 -0.7829  1.1012
  316EMI    C01 5986   1.572   2.743   2.511 -0.0192 -0.2665 -0.2686
  316EMI    C04 5987   1.512   2.543   2.568 -0.8484  0.4389  0.2654
  316EMI    C03 5988   1.430   2.627   2.622  0.1617 -0.0241  0.4587
  316EMI    H07 5989   1.624   2.819   2.457 -1.3191 -0.3020 -1.6334
  316EMI    H09 5990   1.498   2.437   2.572 -2.3963  0.6135 -0.0061
  316EMI    H08 5991   1.342   2.608   2.681  0.4655 -2.8581  0.1518
  316EMI    C05 5992   1.388   2.874   2.601 -0.3790 -0.0796  0.1812
  316EMI    H0B 5993   1.318   2.876   2.519 -0.7028  1.4639  0.4648
  316EMI    H0C 5994   1.341   2.866   2.699  2.2882  0.7419  1.6202
  316EMI    H0D 5995   1.462   2.952   2.600  1.1694 -1.5055  0.1637
  316EMI    N00 5996   1.459   2.752   2.575  0.7000 -0.1312  0.3844
  316EMI    C06 5997   1.723   2.557   2.419 -0.2339  1.0242  0.3304
  316EMI    H0F 5998   1.785   2.493   2.480  0.4488  1.3679  0.0018
  316EMI    C0N 5999   1.688   2.490   2.291  0.3210  0.3901 -0.0118
  316EMI    H0O 6000   1.664   2.385   2.296  2.0846 -0.1546 -1.7809
  316EMI    H0P 6001   1.617   2.551   2.237  1.5743  0.3337 -1.8129
  316EMI    H0Q 6002   1.779   2.484   2.232  0.0624  0.1891 -0.3950
  316EMI    N02 6003   1.605   2.613   2.491  0.5927 -0.5399 -0.0332
  316EMI    H0E 6004   1.785   2.641   2.392  1.8724 -0.5068  0.2251
  317EMI    C01 6005   3.285   2.310   0.596 -0.1192  0.0117  0.7746
  317EMI    C04 6006   3.398   2.466   0.706 -0.0067  0.1747  0.5578
  317EMI    C03 6007   3.355   2.517   0.590  0.3557 -0.6966  0.3700
  317EMI    H07 6008   3.238   2.216   0.576  1.5259 -0.4558 -1.2161
  317EMI    H09 6009   3.458   2.517   0.778  1.0822 -1.6070  0.9797
  317EMI    H08 6010   3.349   2.613   0.545 -1.8762 -1.7908 -2.0056
  317EMI    C05 6011   3.208   2.442   0.402 -0.6406  0.5271 -0.7981
  317EMI    H0B 6012   3.273   2.502   0.339  3.0819 -1.9933  0.3092
  317EMI    H0C 6013   3.187   2.349   0.350  0.1408 -0.1431  0.0472
  317EMI    H0D 6014   3.114   2.492   0.414 -1.7005 -0.8792 -2.6883
  317EMI    N00 6015   3.284   2.421   0.525  0.1058  0.2992 -0.1192
  317EMI    C06 6016   3.381   2.237   0.817 -0.2247  0.0683 -0.1787
  317EMI    H0F 6017   3.293   2.204   0.870 -1.4338  2.6148 -0.4874
  317EMI    C0N 6018   3.441   2.108   0.758  0.1015  0.3274 -0.7346
  317EMI    H0O 6019   3.533   2.117   0.701 -1.2421 -1.1969 -3.3250
  317EMI    H0P 6020   3.471   2.042   0.839  0.0169  2.7304  1.3789
  317EMI    H0Q 6021   3.371   2.064   0.688 -0.7847  0.6158 -0.0432
  317EMI    N02 6022   3.337   2.339   0.716 -0.7619  0.0882 -0.2565
  317EMI    H0E 6023   3.444   2.282   0.892 -0.1305  0.7334 -0.6524
  318EMI    C01 6024   2.264   1.759   0.707  0.1643  0.1422  0.2399
  318EMI    C04 6025   2.323   1.920   0.830 -0.7750 -0.7168  1.2277
  318EMI    C03 6026   2.377   1.810   0.882 -0.1170  0.2252  0.3294
  318EMI    H07 6027   2.223   1.709   0.621 -0.3211 -0.8928  1.0527
  318EMI    H09 6028   2.348   2.022   0.854  0.4569 -0.8513  0.6204
  318EMI    H08 6029   2.450   1.810   0.961 -0.0415 -0.7144  0.2633
  318EMI    C05 6030   2.337   1.568   0.834 -0.2898  0.1507  0.5019
  318EMI    H0B 6031   2.243   1.519   0.856  0.7542 -2.4333 -0.4135
  318EMI    H0C 6032   2.369   1.531   0.738 -2.5739  1.0367 -0.6789
  318EMI    H0D 6033   2.416   1.546   0.904 -0.1693  0.5576  0.4907
  318EMI    N00 6034   2.306   1.711   0.818 -0.1210 -0.1620 -0.3514
  318EMI    C06 6035   2.221   1.987   0.611 -0.0832 -0.5087  0.7791
  318EMI    H0F 6036   2.224   1.941   0.513  0.3945  0.3093  0.3948
  318EMI    C0N 6037   2.101   2.080   0.634  0.4563  0.3056 -0.3378
  318EMI    H0O 6038   2.060   2.131   0.548 -4.5297 -0.3424  1.3543
  318EMI    H0P 6039   2.024   2.012   0.668  0.9684 -0.7120 -1.1467
  318EMI    H0Q 6040   2.127   2.151   0.711 -2.2834 -0.3816  1.3307
  318EMI    N02 6041   2.250   1.890   0.715 -0.2256  0.1078 -0.3878
  318EMI    H0E 6042   2.304   2.053   0.590 -1.1062  0.5719 -0.0382
  319EMI    C01 6043   3.456   0.027   5.090  0.8399  0.2334  0.0477
  319EMI    C04 6044   3.351  -0.067   4.928 -0.1601  0.0679 -0.0408
  319EMI    C03 6045   3.473  -0.115   4.926  0.4276 -0.0351  0.2546
  319EMI    H07 6046   3.478   0.087   5.175 -1.2161 -0.1685  0.9251
  319EMI    H09 6047   3.271  -0.090   4.861  1.8875 -1.4199 -2.1456
  319EMI    H08 6048   3.511  -0.186   4.856  1.0620  2.6325 -2.3149
  319EMI    C05 6049   3.677  -0.082   5.073 -0.3729  0.0526 -0.3413
  319EMI    H0B 6050   3.702  -0.182   5.042 -0.0507  0.3003 -0.8889
  319EMI    H0C 6051   3.745  -0.009   5.032  0.7494 -0.8956 -0.2113
  319EMI    H0D 6052   3.688  -0.074   5.180  1.4845 -0.4709 -0.4611
  319EMI    N00 6053   3.539  -0.056   5.027 -0.0817  0.4047  0.5717
  319EMI    C06 6054   3.204   0.089   5.068  0.4022  0.3191 -0.1569
  319EMI    H0F 6055   3.142   0.021   5.126 -0.3944  1.2529  0.1229
  319EMI    C0N 6056   3.219   0.217   5.150 -0.1091 -0.1745  1.1462
  319EMI    H0O 6057   3.312   0.211   5.204  0.4434 -1.0767  0.1244
  319EMI    H0P 6058   3.214   0.297   5.077  1.9355 -1.5516 -0.6083
  319EMI    H0Q 6059   3.133   0.204   5.216 -1.2528  0.1950 -0.2125
  319EMI    N02 6060   3.336   0.019   5.036  0.1773  0.4214 -0.1282
  319EMI    H0E 6061   3.152   0.111   4.976 -1.9550 -3.5966 -0.0336
  320EMI    C01 6062   1.886   3.469   0.702  0.3287  0.9654  0.3125
  320EMI    C04 6063   2.076   3.470   0.593 -0.0328  0.1387  0.3212
  320EMI    C03 6064   2.038   3.594   0.616  0.2568 -0.0223 -0.0030
  320EMI    H07 6065   1.810   3.423   0.762  0.9230 -1.1717 -0.4795
  320EMI    H09 6066   2.166   3.439   0.545 -0.4669  1.3521 -1.3935
  320EMI    H08 6067   2.085   3.686   0.589 -0.5212  0.7744  1.2693
  320EMI    C05 6068   1.825   3.706   0.707 -0.4135 -0.4073  0.4422
  320EMI    H0B 6069   1.852   3.745   0.805  2.4762  0.6666 -0.6585
  320EMI    H0C 6070   1.839   3.783   0.632 -2.0596  1.0425  1.5499
  320EMI    H0D 6071   1.724   3.670   0.695 -0.6442  0.5189 -0.4802
  320EMI    N00 6072   1.912   3.593   0.674  0.7090  0.6487  0.7776
  320EMI    C06 6073   1.970   3.239   0.644  0.0976  0.3915 -0.0239
  320EMI    H0F 6074   1.950   3.205   0.745 -0.9294  0.9495 -0.0255
  320EMI    C0N 6075   1.876   3.182   0.542 -0.7319 -0.3214 -0.2372
  320EMI    H0O 6076   1.889   3.224   0.443  1.5045  0.9339  0.5292
  320EMI    H0P 6077   1.896   3.075   0.547 -0.4119 -0.2057  2.1101
  320EMI    H0Q 6078   1.777   3.201   0.580 -0.6527  1.3362 -0.8119
  320EMI    N02 6079   1.978   3.388   0.646 -0.0666 -0.1046  0.5620
  320EMI    H0E 6080   2.070   3.202   0.623 -1.0011 -2.6698 -0.4245
  321EMI    C01 6081   4.892   3.642   2.910 -0.5223 -0.5356  0.1821
  321EMI    C04 6082   4.714   3.730   2.828  0.6058 -0.1320 -0.7059
  321EMI    C03 6083   4.718   3.750   2.959  0.3797 -0.5530 -0.5693
  321EMI    H07 6084   4.991   3.603   2.925  0.7316  2.8685  1.8375
  321EMI    H09 6085   4.639   3.764   2.761 -0.3531  0.6563  0.7181
  321EMI    H08 6086   4.644   3.787   3.027  0.5330 -0.9972 -0.1521
  321EMI    C05 6087   4.875   3.692   3.148  0.0236 -0.1781  0.2598
  321EMI    H0B 6088   4.805   3.756   3.200 -0.4587  0.2035 -0.8264
  321EMI    H0C 6089   4.860   3.591   3.183 -1.6165  0.3594  1.2513
  321EMI    H0D 6090   4.978   3.721   3.158  0.2379 -0.4932 -0.8835
  321EMI    N00 6091   4.826   3.693   3.011 -0.1894 -0.0396 -0.4150
  321EMI    C06 6092   4.866   3.629   2.653 -0.5054  0.6050  0.4182
  321EMI    H0F 6093   4.894   3.525   2.651  2.4305  1.2474 -3.3985
  321EMI    C0N 6094   4.769   3.626   2.544  0.2315 -0.1253  0.0503
  321EMI    H0O 6095   4.825   3.596   2.457  0.1146 -0.2564  0.0201
  321EMI    H0P 6096   4.700   3.545   2.566 -2.0849  1.7206  0.0337
  321EMI    H0Q 6097   4.719   3.720   2.520 -0.4645 -0.3622  0.5459
  321EMI    N02 6098   4.828   3.662   2.794 -0.0884 -0.6407 -0.1364
  321EMI    H0E 6099   4.947   3.696   2.626  0.3289 -1.0667 -1.4752
  322EMI    C01 6100   3.110   4.289   4.673  0.1321 -0.3557  0.2420
  322EMI    C04 6101   3.253   4.159   4.769  0.6422  0.1896 -0.2915
  322EMI    C03 6102   3.309   4.202   4.655  0.1032  0.3910 -0.2511
  322EMI    H07 6103   3.021   4.341   4.648 -0.5769 -1.6466  0.0110
  322EMI    H09 6104   3.293   4.098   4.847  1.3118 -2.5119 -2.5728
  322EMI    H08 6105   3.409   4.202   4.617  0.2330  2.6830 -0.0762
  322EMI    C05 6106   3.257   4.385   4.499 -0.2099  0.3831 -0.1201
  322EMI    H0B 6107   3.296   4.341   4.409 -1.0521  0.0337 -0.3247
  322EMI    H0C 6108   3.169   4.434   4.459 -1.6774 -2.8540 -1.2384
  322EMI    H0D 6109   3.323   4.461   4.539  0.3642 -0.9678  1.6268
  322EMI    N00 6110   3.223   4.290   4.597  0.4487  0.0296 -0.1627
  322EMI    C06 6111   3.013   4.178   4.873 -0.3668  0.1749  0.3594
  322EMI    H0F 6112   3.009   4.071   4.884 -1.6662  0.2803  1.1673
  322EMI    C0N 6113   3.032   4.253   5.001  0.1176 -0.0198  0.4207
  322EMI    H0O 6114   2.939   4.247   5.056  0.0095 -0.1202  0.2256
  322EMI    H0P 6115   3.115   4.215   5.061 -0.3651  0.9683  1.7718
  322EMI    H0Q 6116   3.059   4.357   4.984 -0.4684  0.3543  1.6261
  322EMI    N02 6117   3.124   4.207   4.771  0.2107  0.0419  0.0801
  322EMI    H0E 6118   2.931   4.208   4.809 -0.7602 -1.3157  0.1300
  323EMI    C01 6119   2.434   0.225   0.358 -0.2216 -0.2084  0.7731
  323EMI    C04 6120   2.486   0.422   0.296  0.8840 -1.1707  0.9525
  323EMI    C03 6121   2.378   0.385   0.226 -0.3583 -0.5095  0.2136
  323EMI    H07 6122   2.440   0.129   0.406 -2.3255 -1.5060 -1.3443
  323EMI    H09 6123   2.546   0.510   0.291 -1.8934  0.8233 -0.9080
  323EMI    H08 6124   2.333   0.436   0.144  2.2036  0.0953 -0.9171
  323EMI    C05 6125   2.216   0.182   0.246 -0.5158 -0.0030 -0.3533
  323EMI    H0B 6126   2.129   0.241   0.269 -1.4237 -0.9810 -1.1847
  323EMI    H0C 6127   2.218   0.161   0.140  0.0881 -2.5247  0.1025
  323EMI    H0D 6128   2.210   0.087   0.296 -0.8913  0.7561  1.0991
  323EMI    N00 6129   2.342   0.261   0.272  0.1142 -0.4058 -0.5341
  323EMI    C06 6130   2.606   0.313   0.499  0.1366  0.2432  0.0169
  323EMI    H0F 6131   2.697   0.333   0.445 -0.5040 -0.2692 -1.2983
  323EMI    C0N 6132   2.575   0.403   0.618  0.0824  0.7052 -0.4413
  323EMI    H0O 6133   2.591   0.508   0.599  0.0798  1.0735  1.3843
  323EMI    H0P 6134   2.476   0.386   0.657  0.5511 -0.2303  0.3985
  323EMI    H0Q 6135   2.645   0.376   0.697 -1.4957 -0.5306  0.5960
  323EMI    N02 6136   2.505   0.327   0.391 -0.0646  0.5319 -0.3939
  323EMI    H0E 6137   2.599   0.208   0.526  0.1916 -0.2643 -1.8018
  324EMI    C01 6138   4.248   0.651   3.578 -0.5565 -0.3850 -0.5740
  324EMI    C04 6139   4.066   0.640   3.453  0.0100  0.2219 -0.1095
  324EMI    C03 6140   4.150   0.535   3.431  0.2384  0.0668 -0.3146
  324EMI    H07 6141   4.315   0.694   3.649 -0.4921 -1.7507  0.2207
  324EMI    H09 6142   3.966   0.667   3.428 -0.4414  0.9677  2.2140
  324EMI    H08 6143   4.135   0.446   3.374  3.1259 -0.5621 -0.2466
  324EMI    C05 6144   4.383   0.460   3.487 -0.2189 -0.0793 -0.2308
  324EMI    H0B 6145   4.457   0.521   3.538  0.5588 -0.8356 -0.4290
  324EMI    H0C 6146   4.369   0.368   3.542 -3.4879  0.0318 -0.6831
  324EMI    H0D 6147   4.414   0.444   3.385  1.4851 -0.1694  0.2607
  324EMI    N00 6148   4.268   0.546   3.503  0.5295 -1.2288  0.0397
  324EMI    C06 6149   4.065   0.815   3.633 -0.8727 -0.0164  0.3378
  324EMI    H0F 6150   3.968   0.772   3.653  0.2454 -1.5856  2.9260
  324EMI    C0N 6151   4.128   0.840   3.765  0.0771  0.7018  0.2907
  324EMI    H0O 6152   4.223   0.890   3.755 -1.1403  3.0486 -0.3199
  324EMI    H0P 6153   4.059   0.900   3.823  0.4821 -0.6553  2.2782
  324EMI    H0Q 6154   4.138   0.747   3.821 -1.8135  1.1420  1.4699
  324EMI    N02 6155   4.134   0.713   3.547 -1.1166  0.1708  0.5126
  324EMI    H0E 6156   4.046   0.905   3.577 -2.5281 -0.6803 -0.2369
  325EMI    C01 6157   3.640   0.841   4.330  0.1863  0.4483 -0.2865
  325EMI    C04 6158   3.472   0.964   4.295 -0.1957  0.0215  0.1339
  325EMI    C03 6159   3.436   0.836   4.273 -0.4449  0.3540 -0.0076
  325EMI    H07 6160   3.736   0.812   4.367  0.2199 -0.7564 -1.2587
  325EMI    H09 6161   3.414   1.050   4.268 -1.8808 -1.0590  0.1927
  325EMI    H08 6162   3.351   0.788   4.231  0.1523 -2.8197  2.0664
  325EMI    C05 6163   3.561   0.614   4.300  0.3201  0.1851 -0.6847
  325EMI    H0B 6164   3.494   0.572   4.373  2.5101 -0.1113  1.2981
  325EMI    H0C 6165   3.544   0.572   4.202 -0.7623 -3.3400  0.8606
  325EMI    H0D 6166   3.658   0.579   4.333  0.2539  1.4237  0.9382
  325EMI    N00 6167   3.547   0.763   4.298 -0.3337  0.4329 -0.7221
  325EMI    C06 6168   3.695   1.081   4.363 -0.7630  0.0810  0.2533
  325EMI    H0F 6169   3.776   1.048   4.426 -0.1293 -0.0505 -0.6179
  325EMI    C0N 6170   3.752   1.149   4.252  0.0744  0.5574  0.2862
  325EMI    H0O 6171   3.803   1.237   4.291  1.2226  0.4638 -0.9466
  325EMI    H0P 6172   3.829   1.089   4.206  0.3523  1.8808 -1.0413
  325EMI    H0Q 6173   3.667   1.173   4.188  0.3618 -0.4098 -0.4760
  325EMI    N02 6174   3.607   0.964   4.330  0.9749  0.0045  0.5023
  325EMI    H0E 6175   3.639   1.148   4.427  0.5258  1.8417 -0.4232
  326EMI    C01 6176   2.496   3.870   3.366 -0.4710  0.3674  0.2448
  326EMI    C04 6177   2.433   4.042   3.489 -0.2712 -0.3616 -0.1583
  326EMI    C03 6178   2.525   4.088   3.402  0.0929  0.1309 -0.1892
  326EMI    H07 6179   2.502   3.768   3.335  0.1766 -0.8435  3.9084
  326EMI    H09 6180   2.380   4.086   3.571 -0.1126 -0.7957  0.1846
  326EMI    H08 6181   2.567   4.186   3.395 -0.5320  0.4724  0.6350
  326EMI    C05 6182   2.670   3.981   3.229 -0.2669  0.7061  0.3338
  326EMI    H0B 6183   2.754   4.025   3.281 -1.6375  0.3926  2.9775
  326EMI    H0C 6184   2.689   3.885   3.183  2.5437  0.5220  1.6808
  326EMI    H0D 6185   2.629   4.044   3.151 -0.7249 -0.2116 -0.1948
  326EMI    N00 6186   2.564   3.977   3.326  0.3041  0.4250  0.3231
  326EMI    C06 6187   2.305   3.818   3.516  0.0797  0.1550  0.2568
  326EMI    H0F 6188   2.339   3.780   3.612 -0.8591  0.4641  0.7256
  326EMI    C0N 6189   2.189   3.897   3.549  0.2237  0.0126  0.4574
  326EMI    H0O 6190   2.114   3.839   3.601 -0.6318  0.1829 -0.5435
  326EMI    H0P 6191   2.223   3.978   3.612 -0.6218  0.6825  0.0658
  326EMI    H0Q 6192   2.144   3.942   3.461  0.9279  0.0746  0.1281
  326EMI    N02 6193   2.412   3.908   3.459  0.1196  0.1684  0.2235
  326EMI    H0E 6194   2.271   3.746   3.443  0.4925  1.6111 -1.4206
  327EMI    C01 6195   0.327   1.350   1.402  0.1672 -0.2001 -0.2767
  327EMI    C04 6196   0.517   1.450   1.364  0.6923 -0.2967 -0.1710
  327EMI    C03 6197   0.466   1.504   1.474 -0.6183 -0.0261  0.0297
  327EMI    H07 6198   0.247   1.280   1.396  0.9932 -1.2564  0.5953
  327EMI    H09 6199   0.607   1.467   1.309 -0.6317  1.6814 -1.8983
  327EMI    H08 6200   0.507   1.578   1.540  0.2325 -0.0257 -0.4822
  327EMI    C05 6201   0.250   1.481   1.598  0.3646 -0.0525 -0.0380
  327EMI    H0B 6202   0.199   1.569   1.564  1.1941  0.0262 -1.1305
  327EMI    H0C 6203   0.179   1.400   1.608  2.0108 -1.6434 -0.4872
  327EMI    H0D 6204   0.307   1.498   1.688  1.2234 -1.3440 -0.2999
  327EMI    N00 6205   0.345   1.442   1.493  0.4998  0.3559 -0.1363
  327EMI    C06 6206   0.457   1.258   1.210  0.1951  0.1368 -0.0718
  327EMI    H0F 6207   0.399   1.171   1.237 -0.5326  0.1924 -1.3769
  327EMI    C0N 6208   0.425   1.317   1.071 -0.2583  0.1543  0.2517
  327EMI    H0O 6209   0.317   1.314   1.061 -0.4711 -2.3999  2.1263
  327EMI    H0P 6210   0.461   1.418   1.060 -3.2974  1.2875 -0.3526
  327EMI    H0Q 6211   0.470   1.259   0.991  1.8874  1.8692  0.1585
  327EMI    N02 6212   0.431   1.350   1.324  0.4570  0.0928  1.0100
  327EMI    H0E 6213   0.555   1.214   1.205 -0.2497 -0.7769 -0.8853
  328EMI    C01 6214   4.763   0.553   4.596  0.2453  0.3575  0.7910
  328EMI    C04 6215   4.703   0.567   4.385 -0.7471  0.0703  0.3364
  328EMI    C03 6216   4.837   0.546   4.392 -0.7770  0.0132 -0.1526
  328EMI    H07 6217   4.762   0.557   4.703  0.2906  0.4627  0.7881
  328EMI    H09 6218   4.639   0.573   4.300  0.5343  1.0988 -0.6039
  328EMI    H08 6219   4.908   0.539   4.312  0.3130  2.6135  0.4746
  328EMI    C05 6220   5.004   0.520   4.579 -0.1855 -0.1499 -0.4755
  328EMI    H0B 6221   5.056   0.437   4.534  1.1143 -0.0138  0.7248
  328EMI    H0C 6222   5.057   0.611   4.556 -1.4529  1.2829  1.8815
  328EMI    H0D 6223   4.989   0.507   4.685  2.8045 -0.2886  0.0239
  328EMI    N00 6224   4.871   0.526   4.525  0.7654 -0.0205  0.2306
  328EMI    C06 6225   4.525   0.617   4.557 -0.5099  0.0215  0.1702
  328EMI    H0F 6226   4.460   0.647   4.475 -1.0015  0.8450  0.8454
  328EMI    C0N 6227   4.470   0.497   4.633  0.4697 -0.7433  0.4562
  328EMI    H0O 6228   4.374   0.519   4.678 -1.0767 -0.7143 -2.6400
  328EMI    H0P 6229   4.449   0.416   4.564  0.5390 -0.1945 -0.2131
  328EMI    H0Q 6230   4.534   0.462   4.713 -0.4453 -1.7697  0.7716
  328EMI    N02 6231   4.660   0.581   4.513  0.2047 -0.2914 -0.0370
  328EMI    H0E 6232   4.542   0.705   4.617 -0.3070  0.4519 -0.5082
  329EMI    C01 6233   2.200   2.549   1.571  0.1478  0.9507 -0.0670
  329EMI    C04 6234   2.075   2.374   1.537  0.2838 -0.6559 -0.1620
  329EMI    C03 6235   2.040   2.432   1.655  0.4115  0.1816 -0.7756
  329EMI    H07 6236   2.284   2.615   1.564  0.1135  0.9916 -0.0969
  329EMI    H09 6237   2.020   2.297   1.488 -1.0871 -0.9317  1.6936
  329EMI    H08 6238   1.966   2.397   1.724  1.8027 -3.1688 -0.7712
  329EMI    C05 6239   2.125   2.625   1.798  0.0889 -0.4972  0.1166
  329EMI    H0B 6240   2.143   2.564   1.885 -1.2241  0.0982  0.8441
  329EMI    H0C 6241   2.204   2.697   1.782 -0.7381  0.0795 -1.6195
  329EMI    H0D 6242   2.024   2.664   1.791 -0.2994 -1.6554 -1.1235
  329EMI    N00 6243   2.123   2.539   1.678 -0.6848  0.2484  0.4667
  329EMI    C06 6244   2.235   2.434   1.357 -0.5033 -0.3202  0.5574
  329EMI    H0F 6245   2.167   2.385   1.288  1.7614  0.8881 -2.7919
  329EMI    C0N 6246   2.281   2.561   1.280  1.0455  0.0059 -0.0658
  329EMI    H0O 6247   2.324   2.528   1.187  0.3103  1.4837 -0.9698
  329EMI    H0P 6248   2.200   2.625   1.246 -1.6607 -2.7052  0.8233
  329EMI    H0Q 6249   2.354   2.621   1.334 -0.4980  0.2582  1.8761
  329EMI    N02 6250   2.173   2.453   1.485  0.1156  0.2478  0.0738
  329EMI    H0E 6251   2.319   2.374   1.388  0.4112  1.4639  1.6670
  330EMI    C01 6252   0.242   0.199   1.382  0.5489 -0.1907  0.0151
  330EMI    C04 6253   0.439   0.129   1.384 -0.7460 -0.2006  0.3822
  330EMI    C03 6254   0.423   0.203   1.494 -0.3699  0.0618 -0.1929
  330EMI    H07 6255   0.142   0.214   1.348 -0.0583 -1.4049  1.1748
  330EMI    H09 6256   0.522   0.073   1.347 -1.1264 -1.3938  1.2613
  330EMI    H08 6257   0.489   0.222   1.576  0.8569  0.7247 -1.2959
  330EMI    C05 6258   0.225   0.342   1.582 -0.3010 -0.3775 -0.2826
  330EMI    H0B 6259   0.135   0.383   1.539  1.1056  3.0582 -0.2555
  330EMI    H0C 6260   0.202   0.283   1.669 -0.8382 -1.8679 -1.3976
  330EMI    H0D 6261   0.292   0.421   1.613 -1.1320  0.0537  0.4611
  330EMI    N00 6262   0.292   0.255   1.489  0.6341  0.0389  0.1242
  330EMI    C06 6263   0.299   0.054   1.186  0.4185  0.5024 -0.8613
  330EMI    H0F 6264   0.384  -0.009   1.163  1.2985  0.4916  1.9563
  330EMI    C0N 6265   0.174  -0.028   1.195 -0.3745  0.4931 -0.4333
  330EMI    H0O 6266   0.097   0.045   1.172 -0.4734  0.7511  0.6907
  330EMI    H0P 6267   0.175  -0.107   1.120  0.5787 -0.4070  0.4857
  330EMI    H0Q 6268   0.172  -0.073   1.293 -2.4505 -1.8712 -1.4355
  330EMI    N02 6269   0.324   0.129   1.316  0.0213 -0.0288 -0.5647
  330EMI    H0E 6270   0.299   0.118   1.100  3.3797  2.3554  0.3485
  331EMI    C01 6271   1.211   2.489   2.126 -0.1694 -0.2797  0.3233
  331EMI    C04 6272   1.381   2.380   2.067  0.2073  0.1324 -0.0337
  331EMI    C03 6273   1.398   2.506   2.024  0.0985 -0.3443  0.0955
  331EMI    H07 6274   1.114   2.510   2.166 -0.7636 -2.1019 -0.0544
  331EMI    H09 6275   1.449   2.298   2.065 -0.9552 -0.9526  2.1601
  331EMI    H08 6276   1.482   2.541   1.968 -0.6662 -2.0578 -2.3048
  331EMI    C05 6277   1.283   2.723   2.068  0.2958  0.8056  0.3368
  331EMI    H0B 6278   1.194   2.751   2.013 -0.5761  0.1561  1.3804
  331EMI    H0C 6279   1.283   2.758   2.170  1.1558  0.9029  0.3180
  331EMI    H0D 6280   1.357   2.771   2.005 -0.7244  0.5411 -1.0998
  331EMI    N00 6281   1.293   2.578   2.072 -0.1087 -0.3707 -0.1787
  331EMI    C06 6282   1.214   2.252   2.209 -0.0551 -0.1437  0.7217
  331EMI    H0F 6283   1.160   2.187   2.141 -1.3426 -2.3083  3.6078
  331EMI    C0N 6284   1.320   2.167   2.272 -0.1478 -0.2918  1.3612
  331EMI    H0O 6285   1.387   2.233   2.325  0.6361 -0.1281  0.2065
  331EMI    H0P 6286   1.283   2.092   2.341 -1.4119 -1.6574 -0.7005
  331EMI    H0Q 6287   1.390   2.117   2.206 -0.6579  2.4682 -1.4917
  331EMI    N02 6288   1.262   2.372   2.134  0.2217  0.5560  0.0822
  331EMI    H0E 6289   1.149   2.292   2.286 -1.3186  0.1367 -0.4450
  332EMI    C01 6290   1.781   2.537   4.106 -0.4286 -1.2705 -0.0163
  332EMI    C04 6291   1.747   2.435   4.288 -0.7923  0.6384 -0.3117
  332EMI    C03 6292   1.823   2.539   4.322  0.0850 -0.4893  0.0405
  332EMI    H07 6293   1.767   2.573   4.006 -0.0673  2.2202  1.0741
  332EMI    H09 6294   1.716   2.347   4.339 -2.4546  0.7902 -0.9966
  332EMI    H08 6295   1.880   2.556   4.411  0.6387 -2.8340  0.1893
  332EMI    C05 6296   1.894   2.741   4.178  1.1490  0.1395  0.6582
  332EMI    H0B 6297   1.935   2.776   4.271 -0.3687 -1.5673  2.0583
  332EMI    H0C 6298   1.967   2.729   4.100  0.9481  0.9829  0.3284
  332EMI    H0D 6299   1.810   2.801   4.145 -0.8472 -1.7483  2.0240
  332EMI    N00 6300   1.832   2.612   4.202 -0.6661  0.6650 -0.2863
  332EMI    C06 6301   1.616   2.351   4.086 -0.1475 -0.3234  0.0974
  332EMI    H0F 6302   1.637   2.372   3.982 -0.4486  0.4028  0.1803
  332EMI    C0N 6303   1.647   2.203   4.101  0.0554 -0.1349  0.5310
  332EMI    H0O 6304   1.751   2.187   4.076 -0.3164 -1.1836 -0.4397
  332EMI    H0P 6305   1.629   2.183   4.206  0.3363 -1.6696  0.2990
  332EMI    H0Q 6306   1.580   2.146   4.038 -0.8329  1.3538  0.0755
  332EMI    N02 6307   1.712   2.442   4.157  0.6696  0.4290 -0.5971
  332EMI    H0E 6308   1.512   2.368   4.110  0.4812  1.0338  2.1098
  333EMI    C01 6309   0.167   3.720   2.465 -0.2792 -1.1009  0.4861
  333EMI    C04 6310   0.011   3.754   2.321  0.2676 -0.2659 -0.0126
  333EMI    C03 6311  -0.013   3.641   2.390 -0.0999  0.1876 -0.2442
  333EMI    H07 6312   0.258   3.730   2.521 -0.1830 -1.4120  0.3900
  333EMI    H09 6313  -0.038   3.792   2.234  0.7394  1.9600  0.6299
  333EMI    H08 6314  -0.089   3.567   2.376  0.8489 -1.0987  1.0875
  333EMI    C05 6315   0.086   3.530   2.589  0.3609  0.2398 -0.0296
  333EMI    H0B 6316  -0.001   3.467   2.589  0.9579 -0.6025  0.3603
  333EMI    H0C 6317   0.174   3.466   2.594 -0.4165 -0.7627  1.7742
  333EMI    H0D 6318   0.096   3.581   2.684  1.7902 -2.5436  1.4430
  333EMI    N00 6319   0.089   3.619   2.482 -0.2041  0.4548 -0.0548
  333EMI    C06 6320   0.188   3.932   2.331  0.1901 -0.2979  0.5232
  333EMI    H0F 6321   0.146   4.009   2.393  0.0299 -0.2060  0.3018
  333EMI    C0N 6322   0.336   3.931   2.340  0.3939 -0.5841 -0.1654
  333EMI    H0O 6323   0.361   3.913   2.444 -0.8279 -2.0032 -0.0755
  333EMI    H0P 6324   0.388   3.858   2.279  1.6706  1.3326 -1.5084
  333EMI    H0Q 6325   0.387   4.022   2.309 -1.6829  0.8467  0.3793
  333EMI    N02 6326   0.119   3.808   2.379 -0.3997 -0.0774  0.1455
  333EMI    H0E 6327   0.163   3.951   2.228  1.5063 -0.2029  0.2025
  334EMI    C01 6328   0.255   3.433   0.161 -0.5163  0.1709 -0.4909
  334EMI    C04 6329   0.058   3.396   0.072  0.0980  0.6328 -1.1044
  334EMI    C03 6330   0.045   3.408   0.204  0.9474  0.0008 -0.3807
  334EMI    H07 6331   0.359   3.455   0.164 -1.0414  3.5546 -1.7740
  334EMI    H09 6332  -0.016   3.382  -0.004 -1.7856  2.0803  0.3610
  334EMI    H08 6333  -0.050   3.394   0.251  1.1766  0.1469  0.1314
  334EMI    C05 6334   0.204   3.425   0.405  0.7117  0.2940  0.0042
  334EMI    H0B 6335   0.310   3.441   0.418  0.2200  2.8493  1.5639
  334EMI    H0C 6336   0.159   3.507   0.460  1.9329  1.5699 -0.8408
  334EMI    H0D 6337   0.173   3.331   0.447 -1.1143 -0.1032 -2.0308
  334EMI    N00 6338   0.172   3.429   0.263  0.1874 -0.0293 -0.5995
  334EMI    C06 6339   0.261   3.405  -0.085  0.6061  0.2908  0.2506
  334EMI    H0F 6340   0.363   3.440  -0.076  1.9282 -2.6145 -1.9570
  334EMI    C0N 6341   0.247   3.278  -0.163 -0.2137  0.3998  0.2679
  334EMI    H0O 6342   0.281   3.298  -0.263  1.5513 -0.8103  0.5653
  334EMI    H0P 6343   0.308   3.204  -0.111 -1.7345 -0.9064  0.2522
  334EMI    H0Q 6344   0.143   3.251  -0.149 -0.6992  2.6469  1.4691
  334EMI    N02 6345   0.194   3.411   0.044 -0.1253  0.0244 -0.6575
  334EMI    H0E 6346   0.217   3.480  -0.149 -0.6265 -0.3888  0.2690
  335EMI    C01 6347   1.660   1.967   1.049  0.0660  0.3350 -0.0458
  335EMI    C04 6348   1.496   2.108   1.017 -0.3859 -0.5345  0.1570
  335EMI    C03 6349   1.481   2.058   1.139 -0.2081 -0.1616  0.6825
  335EMI    H07 6350   1.754   1.916   1.043  0.3027  0.5846  1.1888
  335EMI    H09 6351   1.444   2.181   0.958  2.3368 -0.7176 -2.6804
  335EMI    H08 6352   1.405   2.083   1.210  0.0477  1.3370  0.4638
  335EMI    C05 6353   1.600   1.899   1.293 -0.8354 -0.2703  0.1462
  335EMI    H0B 6354   1.677   1.942   1.355 -0.6030 -1.4438  0.7114
  335EMI    H0C 6355   1.501   1.905   1.333 -0.5917 -2.9892  1.3916
  335EMI    H0D 6356   1.626   1.797   1.266  1.3588  0.4807 -0.8292
  335EMI    N00 6357   1.586   1.966   1.159  0.3258 -0.5155 -0.4593
  335EMI    C06 6358   1.670   2.080   0.830  0.4000  0.1090  0.4052
  335EMI    H0F 6359   1.709   1.987   0.792  0.2955  0.2915 -0.1533
  335EMI    C0N 6360   1.570   2.145   0.732  0.7518 -0.0241  0.5958
  335EMI    H0O 6361   1.537   2.238   0.777 -1.4375 -1.0954  1.3430
  335EMI    H0P 6362   1.617   2.169   0.637 -0.7943  0.0306 -0.1795
  335EMI    H0Q 6363   1.473   2.106   0.702 -0.2101  3.0542 -0.6034
  335EMI    N02 6364   1.617   2.058   0.965  0.3990 -0.0624 -0.3202
  335EMI    H0E 6365   1.750   2.153   0.832  0.9305 -0.2241 -2.8931
  336EMI    C01 6366   4.006   3.870   2.355  0.5087  0.3733 -0.2759
  336EMI    C04 6367   4.147   3.706   2.289 -0.0711 -0.2227  0.0471
  336EMI    C03 6368   4.031   3.686   2.232  0.1370 -0.8349  0.2025
  336EMI    H07 6369   3.959   3.953   2.401 -1.8364 -0.4803 -1.0003
  336EMI    H09 6370   4.247   3.669   2.290  1.3914  3.2850  0.8615
  336EMI    H08 6371   4.016   3.611   2.157  3.1573 -2.2164  0.8215
  336EMI    C05 6372   3.810   3.820   2.211  0.2754 -0.1482 -0.0388
  336EMI    H0B 6373   3.810   3.798   2.106 -0.3333  1.3210 -0.3817
  336EMI    H0C 6374   3.741   3.753   2.260  0.4038  0.9410  1.7401
  336EMI    H0D 6375   3.780   3.924   2.219  2.1698  0.4880 -0.6493
  336EMI    N00 6376   3.946   3.798   2.258 -0.5219 -0.5104 -0.0202
  336EMI    C06 6377   4.209   3.839   2.496  0.2576 -1.3439  0.6806
  336EMI    H0F 6378   4.191   3.784   2.587 -0.5879  1.0892  2.0868
  336EMI    C0N 6379   4.359   3.840   2.470  0.0173 -0.3448 -0.1560
  336EMI    H0O 6380   4.401   3.903   2.393  2.0032 -0.6567  0.6113
  336EMI    H0P 6381   4.413   3.869   2.560  0.0296  0.9670 -0.5575
  336EMI    H0Q 6382   4.389   3.736   2.466 -2.1489 -1.1455  2.0183
  336EMI    N02 6383   4.120   3.806   2.381 -0.3140  0.9064 -0.5250
  336EMI    H0E 6384   4.174   3.939   2.517 -0.5220 -1.6610  0.9230
  337EMI    C01 6385   0.378   3.789   1.522  0.2788 -0.1398  0.8616
  337EMI    C04 6386   0.210   3.783   1.376 -0.2182 -0.3264  0.6641
  337EMI    C03 6387   0.182   3.693   1.466 -0.1530 -0.0650  0.1709
  337EMI    H07 6388   0.474   3.803   1.566  1.4143  0.5951 -1.6417
  337EMI    H09 6389   0.153   3.813   1.290  2.1150 -1.4393 -1.3875
  337EMI    H08 6390   0.106   3.618   1.473 -0.3953  0.2287  0.6694
  337EMI    C05 6391   0.321   3.576   1.643 -0.1359 -0.3541  0.5508
  337EMI    H0B 6392   0.350   3.610   1.741  0.5886 -0.2361  0.3074
  337EMI    H0C 6393   0.232   3.515   1.645 -0.3585 -0.3247 -2.8084
  337EMI    H0D 6394   0.407   3.522   1.604 -0.4728  0.3214 -1.2441
  337EMI    N00 6395   0.293   3.687   1.549  0.2339 -0.3301 -0.5170
  337EMI    C06 6396   0.395   3.963   1.349  0.2514 -0.2196 -0.2266
  337EMI    H0F 6397   0.492   3.931   1.314  1.3938  1.1987  1.4621
  337EMI    C0N 6398   0.317   4.010   1.229 -0.7005  0.9721 -0.5552
  337EMI    H0O 6399   0.378   4.092   1.192  0.4061  0.6764  0.5227
  337EMI    H0P 6400   0.316   3.932   1.154 -1.2383 -0.0603  0.4870
  337EMI    H0Q 6401   0.217   4.044   1.253 -0.5560  0.0776  1.6256
  337EMI    N02 6402   0.334   3.842   1.407  0.4305  0.1818 -0.3515
  337EMI    H0E 6403   0.401   4.048   1.416  0.2869  1.7892 -2.6063
  338EMI    C01 6404   1.092   1.108   4.436 -0.3126  0.3469 -0.0876
  338EMI    C04 6405   0.870   1.096   4.456  0.4595 -1.1755  0.3469
  338EMI    C03 6406   0.930   1.073   4.571  0.1454  0.4627 -0.2420
  338EMI    H07 6407   1.188   1.131   4.396  0.0323  2.8755  1.9041
  338EMI    H09 6408   0.770   1.124   4.431 -0.0528 -2.7669  0.5509
  338EMI    H08 6409   0.892   1.055   4.669  1.3529 -0.2667  0.1210
  338EMI    C05 6410   1.168   1.032   4.657  0.3861  0.5818  0.4498
  338EMI    H0B 6411   1.172   1.099   4.743  0.0903  0.3119  0.6738
  338EMI    H0C 6412   1.151   0.932   4.693  0.0211 -0.6188 -2.7712
  338EMI    H0D 6413   1.264   1.024   4.608 -0.8866 -0.6826 -1.9739
  338EMI    N00 6414   1.067   1.066   4.555 -0.4726  0.0320  0.2087
  338EMI    C06 6415   0.969   1.144   4.224  0.3352 -0.2034 -0.2970
  338EMI    H0F 6416   1.063   1.121   4.178  0.3830 -1.0503  0.2167
  338EMI    C0N 6417   0.858   1.061   4.148  0.2299 -0.5037  0.3436
  338EMI    H0O 6418   0.777   1.120   4.106  0.1929  0.2793  1.4879
  338EMI    H0P 6419   0.921   1.005   4.080  1.3642  2.4228 -1.2172
  338EMI    H0Q 6420   0.810   0.994   4.218  0.8232  0.4797  1.7267
  338EMI    N02 6421   0.979   1.112   4.365  0.3706  0.1794 -0.1382
  338EMI    H0E 6422   0.943   1.248   4.209  2.5166  0.6178  1.2463
  339EMI    C01 6423   1.856   4.318   1.208  0.7454  0.5543  0.4784
  339EMI    C04 6424   1.802   4.499   1.316 -0.6011  1.1635  0.1142
  339EMI    C03 6425   1.812   4.400   1.408 -0.1355 -0.8852 -0.1681
  339EMI    H07 6426   1.882   4.256   1.125  1.7397  0.1989  1.0443
  339EMI    H09 6427   1.777   4.601   1.337 -1.6767  0.7773  0.7737
  339EMI    H08 6428   1.790   4.408   1.512 -1.2870  1.2702 -0.5311
  339EMI    C05 6429   1.805   4.148   1.383  0.3105 -0.3788 -0.0327
  339EMI    H0B 6430   1.712   4.138   1.436 -0.1026 -1.2260 -0.8704
  339EMI    H0C 6431   1.798   4.071   1.306 -1.4748 -1.2376  0.9241
  339EMI    H0D 6432   1.886   4.122   1.449 -1.4601 -3.5499  1.1660
  339EMI    N00 6433   1.829   4.280   1.331  0.4063  0.3970 -1.2147
  339EMI    C06 6434   1.814   4.514   1.070  0.1070 -0.2122  0.5108
  339EMI    H0F 6435   1.890   4.495   0.996  1.0934  0.3469  1.3634
  339EMI    C0N 6436   1.682   4.469   1.004  0.5837  0.2488  0.6112
  339EMI    H0O 6437   1.607   4.460   1.082 -2.1611 -0.8761 -1.9662
  339EMI    H0P 6438   1.638   4.525   0.923 -1.1611  1.9700  2.6181
  339EMI    H0Q 6439   1.699   4.367   0.970 -1.6462 -0.2251  0.7648
  339EMI    N02 6440   1.837   4.444   1.198 -0.1052  0.6649 -0.5241
  339EMI    H0E 6441   1.821   4.621   1.077 -1.0809  0.0404 -1.4215
  340EMI    C01 6442   3.150   3.923   2.753  0.6060 -0.5917  0.1860
  340EMI    C04 6443   2.950   3.874   2.829  0.8185 -0.6390 -0.5480
  340EMI    C03 6444   2.938   3.917   2.703 -0.3032 -0.3963  0.1345
  340EMI    H07 6445   3.252   3.948   2.735  0.1397  0.5869 -0.9837
  340EMI    H09 6446   2.879   3.843   2.903  0.3104  2.1989  0.2611
  340EMI    H08 6447   2.860   3.936   2.632  1.1701 -0.1362 -1.5025
  340EMI    C05 6448   3.086   4.030   2.531 -0.6704 -0.0685  0.7100
  340EMI    H0B 6449   3.013   4.109   2.523 -0.8452 -0.2571  0.4449
  340EMI    H0C 6450   3.183   4.076   2.541 -0.3869 -0.4444 -0.2285
  340EMI    H0D 6451   3.076   3.970   2.442 -0.1913 -1.2455  1.4195
  340EMI    N00 6452   3.061   3.950   2.657  0.1997  0.4007 -0.0007
  340EMI    C06 6453   3.142   3.830   2.990 -0.4107  0.4333  0.0715
  340EMI    H0F 6454   3.250   3.832   2.993 -0.4335  0.6685  2.2908
  340EMI    C0N 6455   3.090   3.926   3.092 -0.1413  0.7237 -0.5669
  340EMI    H0O 6456   3.015   3.888   3.161  1.1621  1.0466  1.0714
  340EMI    H0P 6457   3.176   3.950   3.152  0.0211  0.1255 -0.5466
  340EMI    H0Q 6458   3.052   4.023   3.062  1.3659  0.7994 -2.4540
  340EMI    N02 6459   3.086   3.874   2.859  0.0960 -0.1868 -0.0024
  340EMI    H0E 6460   3.119   3.726   3.011  0.9372  0.1661  0.3736
  341EMI    C01 6461   0.338   2.436   2.563 -0.7021  0.5128 -0.2901
  341EMI    C04 6462   0.314   2.310   2.391 -0.4115 -0.0199 -0.3346
  341EMI    C03 6463   0.197   2.349   2.426 -0.0640 -0.4533 -0.1959
  341EMI    H07 6464   0.383   2.471   2.653 -0.4687 -0.5810  0.0331
  341EMI    H09 6465   0.341   2.251   2.306  0.5419  0.5537 -0.4518
  341EMI    H08 6466   0.105   2.308   2.390  0.7059 -1.7834 -0.7194
  341EMI    C05 6467   0.100   2.491   2.613  0.0045  0.2425 -0.0291
  341EMI    H0B 6468   0.006   2.496   2.560  0.1044  0.6047 -0.1797
  341EMI    H0C 6469   0.092   2.420   2.694  1.5448  0.7322  0.5943
  341EMI    H0D 6470   0.128   2.584   2.660  1.4327  0.3187 -0.9748
  341EMI    N00 6471   0.210   2.438   2.532 -0.3519  0.5802  0.0713
  341EMI    C06 6472   0.552   2.346   2.464 -0.0998  0.3033  0.1087
  341EMI    H0F 6473   0.575   2.328   2.568  0.4558 -1.1573 -0.2495
  341EMI    C0N 6474   0.602   2.216   2.391  0.2622 -0.0372  0.4907
  341EMI    H0O 6475   0.594   2.216   2.283  0.9676  1.9438  0.4022
  341EMI    H0P 6476   0.705   2.185   2.405 -0.3938 -2.4800  0.4127
  341EMI    H0Q 6477   0.536   2.135   2.422 -0.6341 -0.4713 -2.2590
  341EMI    N02 6478   0.405   2.369   2.474 -0.1294 -0.1771 -0.2763
  341EMI    H0E 6479   0.589   2.442   2.430 -1.0957  1.3335  1.7501
  342EMI    C01 6480   0.686   0.039   4.578  0.1418  0.6744 -0.0501
  342EMI    C04 6481   0.528  -0.104   4.634  0.0518 -0.3947 -0.0562
  342EMI    C03 6482   0.575  -0.145   4.521 -0.6737  0.2365 -0.0017
  342EMI    H07 6483   0.751   0.123   4.572  0.2355  0.4883 -2.6917
  342EMI    H09 6484   0.449  -0.148   4.692  1.0066 -0.5162  1.1935
  342EMI    H08 6485   0.549  -0.230   4.463 -0.8321  0.0319  0.3679
  342EMI    C05 6486   0.767  -0.081   4.375 -0.1176  0.0720  0.4848
  342EMI    H0B 6487   0.777  -0.189   4.365  2.6464  0.4038 -1.5300
  342EMI    H0C 6488   0.752  -0.048   4.274 -0.3996 -1.6053 -0.0598
  342EMI    H0D 6489   0.864  -0.049   4.410 -0.6036  2.2889 -0.0484
  342EMI    N00 6490   0.677  -0.055   4.486 -0.1714  0.5033  0.3708
  342EMI    C06 6491   0.578   0.080   4.798  0.9173  0.6611  0.6452
  342EMI    H0F 6492   0.472   0.075   4.818  0.2910 -0.8728 -2.3874
  342EMI    C0N 6493   0.656   0.017   4.914 -0.0436  0.0056  0.1515
  342EMI    H0O 6494   0.621  -0.086   4.908 -1.5900  0.4161  1.4807
  342EMI    H0P 6495   0.759   0.029   4.883 -0.4079 -0.4111 -1.3351
  342EMI    H0Q 6496   0.637   0.063   5.010  0.7892 -1.1833  0.9175
  342EMI    N02 6497   0.599   0.007   4.670  0.3598 -0.4802  0.1071
  342EMI    H0E 6498   0.593   0.184   4.774  1.3672  0.1477 -1.5272
  343EMI    C01 6499   1.650   1.553   4.501  0.1158 -0.2039  0.5406
  343EMI    C04 6500   1.593   1.343   4.527 -0.4976 -0.1418 -0.2365
  343EMI    C03 6501   1.539   1.384   4.411 -0.4043 -0.5205 -0.4568
  343EMI    H07 6502   1.691   1.651   4.517 -1.4689  0.9676 -2.0429
  343EMI    H09 6503   1.584   1.251   4.580  1.0505  0.1096  0.5111
  343EMI    H08 6504   1.486   1.335   4.333  0.3136 -0.2683 -1.1058
  343EMI    C05 6505   1.539   1.607   4.291  0.2115  0.5918  0.0314
  343EMI    H0B 6506   1.492   1.538   4.222  1.3719 -0.4233  0.2073
  343EMI    H0C 6507   1.480   1.690   4.325 -2.3552 -1.8864  2.0950
  343EMI    H0D 6508   1.627   1.645   4.240  0.0202 -0.6261 -1.2719
  343EMI    N00 6509   1.573   1.519   4.401  0.1217 -0.4996 -0.1960
  343EMI    C06 6510   1.729   1.444   4.713  0.7054 -0.2490 -0.2108
  343EMI    H0F 6511   1.832   1.413   4.699  0.5936 -0.1855 -1.2070
  343EMI    C0N 6512   1.725   1.575   4.783 -1.3335  0.1362 -0.1415
  343EMI    H0O 6513   1.724   1.665   4.722 -0.5043  1.0485  1.1351
  343EMI    H0P 6514   1.633   1.587   4.839  0.0160 -1.6368  2.6955
  343EMI    H0Q 6515   1.802   1.582   4.858 -1.6345  1.2602  0.0801
  343EMI    N02 6516   1.661   1.451   4.581 -0.0804  0.1861 -0.4389
  343EMI    H0E 6517   1.685   1.372   4.780  0.8656 -0.7905 -0.6816
  344EMI    C01 6518   4.864   4.759   1.198  0.1391  0.1576  0.5458
  344EMI    C04 6519   5.078   4.769   1.143 -0.5128  0.1844 -0.5356
  344EMI    C03 6520   5.056   4.845   1.256  0.1836 -0.0231  0.4244
  344EMI    H07 6521   4.766   4.717   1.209  0.8115 -2.0518 -1.1104
  344EMI    H09 6522   5.170   4.749   1.093 -0.1974  1.5225 -0.5252
  344EMI    H08 6523   5.111   4.909   1.321  1.6424  0.4163 -1.1734
  344EMI    C05 6524   4.863   4.898   1.407 -0.8239  0.2667  0.0261
  344EMI    H0B 6525   4.942   4.947   1.461  0.6582 -0.4411 -1.3961
  344EMI    H0C 6526   4.793   4.978   1.387 -0.3582  0.5312 -0.5699
  344EMI    H0D 6527   4.825   4.813   1.462  0.4947 -2.0416 -2.3649
  344EMI    N00 6528   4.921   4.838   1.283  0.3919 -0.4768  0.2876
  344EMI    C06 6529   4.923   4.633   0.996  0.5109  0.2304 -0.3497
  344EMI    H0F 6530   4.815   4.635   0.983  0.3013  0.1839  1.2517
  344EMI    C0N 6531   5.016   4.681   0.873 -0.3622 -0.1006  0.2235
  344EMI    H0O 6532   5.044   4.786   0.875 -1.5158  0.2198 -0.0757
  344EMI    H0P 6533   5.114   4.633   0.871 -0.0247  0.4331 -4.0879
  344EMI    H0Q 6534   4.976   4.659   0.775 -0.3419  0.5211  0.0750
  344EMI    N02 6535   4.954   4.717   1.112 -0.5028 -0.2694  0.1516
  344EMI    H0E 6536   4.951   4.529   0.996 -1.9513 -0.5179 -1.3171
  345EMI    C01 6537   2.251   3.834   1.489 -0.0300 -0.0414  0.1428
  345EMI    C04 6538   2.389   3.734   1.347  1.1032 -0.3870  0.5720
  345EMI    C03 6539   2.260   3.694   1.318  0.0643  0.6347 -0.8914
  345EMI    H07 6540   2.215   3.902   1.563 -0.7403 -1.7694  1.4495
  345EMI    H09 6541   2.481   3.711   1.298 -0.0548 -2.0754 -0.9578
  345EMI    H08 6542   2.224   3.622   1.247 -0.1985 -0.5496  0.3942
  345EMI    C05 6543   2.031   3.735   1.403 -0.4170 -0.8107 -0.0921
  345EMI    H0B 6544   1.998   3.634   1.423  0.0367 -0.6221  1.7123
  345EMI    H0C 6545   2.002   3.804   1.480  2.0828  1.0337 -0.6627
  345EMI    H0D 6546   1.996   3.763   1.305  0.7158  0.5425 -0.1407
  345EMI    N00 6547   2.177   3.756   1.409  0.1935  0.4344  0.1300
  345EMI    C06 6548   2.481   3.896   1.520 -0.2501  0.2034 -0.3486
  345EMI    H0F 6549   2.457   4.000   1.506  1.2147  0.6585  0.3208
  345EMI    C0N 6550   2.490   3.860   1.673  0.2245 -0.3091 -0.9962
  345EMI    H0O 6551   2.496   3.753   1.686  0.3396 -0.4747 -2.3074
  345EMI    H0P 6552   2.580   3.898   1.721  0.7196 -3.0091  0.4038
  345EMI    H0Q 6553   2.399   3.894   1.722 -0.1329  0.9561 -2.4700
  345EMI    N02 6554   2.377   3.816   1.457 -0.1823 -0.2970 -0.1172
  345EMI    H0E 6555   2.571   3.874   1.464 -1.3626 -1.3504 -1.6073
  346EMI    C01 6556   4.237   0.860   4.654 -0.1370 -0.2078  0.6616
  346EMI    C04 6557   4.071   0.745   4.746 -0.1887 -0.3012 -0.3420
  346EMI    C03 6558   4.128   0.824   4.841 -0.4011  0.5418 -0.2984
  346EMI    H07 6559   4.300   0.901   4.578 -0.9255  0.7586  0.5105
  346EMI    H09 6560   3.991   0.676   4.738 -0.1407 -0.3392 -0.5168
  346EMI    H08 6561   4.091   0.828   4.941 -1.8999 -0.5196 -0.7874
  346EMI    C05 6562   4.316   0.992   4.847 -0.5524  0.5059  0.0402
  346EMI    H0B 6563   4.371   0.941   4.925 -2.8037  0.1561  1.4880
  346EMI    H0C 6564   4.378   1.048   4.778  0.7479 -0.9349  0.0001
  346EMI    H0D 6565   4.239   1.054   4.890 -0.8404 -0.7290  1.3814
  346EMI    N00 6566   4.232   0.897   4.781 -0.1429  0.3252  0.6786
  346EMI    C06 6567   4.112   0.728   4.490 -0.4653 -0.6557 -0.3945
  346EMI    H0F 6568   4.173   0.792   4.428 -0.5312  2.3297  2.3329
  346EMI    C0N 6569   4.117   0.577   4.481  0.0428 -0.0594 -0.0200
  346EMI    H0O 6570   4.098   0.547   4.379 -0.2616 -0.4516  0.1488
  346EMI    H0P 6571   4.220   0.557   4.508 -0.6807 -0.9928  2.3099
  346EMI    H0Q 6572   4.051   0.524   4.548 -0.5296  1.4050  0.6295
  346EMI    N02 6573   4.138   0.776   4.629  0.0087 -0.5642 -0.9548
  346EMI    H0E 6574   4.017   0.772   4.463 -0.3848  0.4540  0.9966
  347EMI    C01 6575   2.334   3.553   5.002 -0.4555 -0.1825 -0.0666
  347EMI    C04 6576   2.325   3.717   4.858  1.0249 -0.3716 -0.2799
  347EMI    C03 6577   2.440   3.729   4.924 -0.3446  0.4393  0.2793
  347EMI    H07 6578   2.288   3.476   5.061 -0.4152  0.1892  0.4544
  347EMI    H09 6579   2.272   3.764   4.778  0.9839  1.2710  0.6781
  347EMI    H08 6580   2.516   3.801   4.903  0.0141  0.3612  1.2624
  347EMI    C05 6581   2.549   3.599   5.118  0.1065  0.5766 -0.5139
  347EMI    H0B 6582   2.527   3.508   5.173  2.3194  1.7107  2.5075
  347EMI    H0C 6583   2.640   3.588   5.061 -0.1699 -0.2202 -0.8241
  347EMI    H0D 6584   2.553   3.684   5.184 -1.1328 -0.7997  1.4465
  347EMI    N00 6585   2.440   3.628   5.019 -0.3273  0.5865 -0.2329
  347EMI    C06 6586   2.111   3.572   4.895 -0.3502 -0.0598  0.0640
  347EMI    H0F 6587   2.084   3.503   4.974  0.0249 -0.7750 -0.4188
  347EMI    C0N 6588   2.018   3.694   4.910  0.7913  0.2165 -0.6616
  347EMI    H0O 6589   1.916   3.663   4.889  1.1166  0.4690 -2.7588
  347EMI    H0P 6590   2.026   3.727   5.013  0.2527  1.2822 -0.9538
  347EMI    H0Q 6591   2.046   3.780   4.851  0.4916  0.9100  0.1788
  347EMI    N02 6592   2.254   3.613   4.918 -0.2966  0.3210 -0.3313
  347EMI    H0E 6593   2.120   3.529   4.797  1.4720 -1.0001  0.5983
  348EMI    C01 6594   3.966   0.557   2.731 -0.2267  0.8927 -0.6371
  348EMI    C04 6595   4.152   0.553   2.623  0.5337 -0.7616  0.7183
  348EMI    C03 6596   4.137   0.436   2.677  0.5948  0.8126  0.0234
  348EMI    H07 6597   3.880   0.593   2.783 -0.8983 -1.6841  0.1781
  348EMI    H09 6598   4.235   0.586   2.565 -0.3477  1.4322  0.6051
  348EMI    H08 6599   4.198   0.348   2.676 -0.7080 -0.1511  0.8773
  348EMI    C05 6600   3.978   0.314   2.829  0.3486 -0.2373 -0.4635
  348EMI    H0B 6601   3.872   0.320   2.846  0.6474  1.4778  1.1483
  348EMI    H0C 6602   4.009   0.219   2.789  1.1442 -0.5984  0.9297
  348EMI    H0D 6603   4.022   0.322   2.927 -0.9756 -0.2323  0.1450
  348EMI    N00 6604   4.017   0.435   2.745  0.5480  0.4397 -0.1161
  348EMI    C06 6605   4.046   0.779   2.648 -0.2664  0.0565 -0.9036
  348EMI    H0F 6606   4.026   0.807   2.545 -3.0219 -0.5248 -0.5998
  348EMI    C0N 6607   3.960   0.845   2.755  0.0373  0.4723 -0.4009
  348EMI    H0O 6608   3.993   0.801   2.849  2.6014  0.5580 -1.1902
  348EMI    H0P 6609   3.971   0.952   2.741 -0.6773  0.8533  1.5283
  348EMI    H0Q 6610   3.856   0.826   2.733 -0.5456  0.2028  2.1638
  348EMI    N02 6611   4.052   0.629   2.662  0.1440 -0.0776  0.3830
  348EMI    H0E 6612   4.146   0.806   2.679 -0.5280 -0.2868  0.2604
  349EMI    C01 6613   3.732   3.932   0.901 -0.0456 -0.5922 -0.7469
  349EMI    C04 6614   3.944   3.956   0.875 -0.0656  0.0814 -0.0442
  349EMI    C03 6615   3.916   3.976   1.002  0.1637  0.0940 -1.1135
  349EMI    H07 6616   3.627   3.919   0.885 -0.3064 -1.4309  1.4186
  349EMI    H09 6617   4.043   3.974   0.839  0.3312 -1.5383  0.1435
  349EMI    H08 6618   3.986   4.007   1.077  1.5223  0.6318 -2.5437
  349EMI    C05 6619   3.714   3.973   1.158 -0.2029 -0.3266  0.2381
  349EMI    H0B 6620   3.750   3.894   1.222 -1.5275 -2.2983 -1.3223
  349EMI    H0C 6621   3.735   4.069   1.203  2.2624 -1.3270  1.3874
  349EMI    H0D 6622   3.607   3.964   1.148 -0.3638  1.7204 -0.2757
  349EMI    N00 6623   3.779   3.956   1.022  0.0873  0.2785 -0.9401
  349EMI    C06 6624   3.816   3.901   0.662  0.3649  0.2691  0.0969
  349EMI    H0F 6625   3.715   3.870   0.637  0.2872  0.8285 -0.2989
  349EMI    C0N 6626   3.860   4.022   0.585 -0.2523  0.2553  0.5079
  349EMI    H0O 6627   3.949   4.069   0.623 -1.4021  2.4565  0.6171
  349EMI    H0P 6628   3.864   4.001   0.479 -2.2706 -0.7065  0.5597
  349EMI    H0Q 6629   3.780   4.095   0.590  0.2960  0.8530  0.6236
  349EMI    N02 6630   3.828   3.924   0.811  0.0301  0.1687  0.1156
  349EMI    H0E 6631   3.883   3.818   0.644 -0.6199 -0.0656 -2.5115
  350EMI    C01 6632   4.555   3.793   4.275  0.2129 -0.4330 -0.0293
  350EMI    C04 6633   4.724   3.930   4.283 -0.0472 -1.3329 -0.1941
  350EMI    C03 6634   4.766   3.824   4.215  1.0453 -0.7317 -0.1284
  350EMI    H07 6635   4.463   3.741   4.288  0.2995 -0.5596  0.0794
  350EMI    H09 6636   4.774   4.020   4.310 -1.9255  0.0092 -0.9623
  350EMI    H08 6637   4.860   3.801   4.171  1.3755  0.5297 -0.1183
  350EMI    C05 6638   4.658   3.612   4.137  1.0965 -0.3220 -0.7358
  350EMI    H0B 6639   4.555   3.599   4.108  1.2993 -0.0890 -1.5630
  350EMI    H0C 6640   4.718   3.622   4.048  1.4440  2.1304 -0.2902
  350EMI    H0D 6641   4.684   3.538   4.213 -3.0672  1.6931  3.1415
  350EMI    N00 6642   4.655   3.745   4.207  0.4731  0.5370  0.0755
  350EMI    C06 6643   4.496   4.011   4.377  0.7114  0.5152 -0.5299
  350EMI    H0F 6644   4.397   3.967   4.389  1.1050 -0.9622 -2.1823
  350EMI    C0N 6645   4.539   4.061   4.508  0.5364  0.2962  0.0258
  350EMI    H0O 6646   4.622   4.130   4.494 -1.5426  3.1312  0.8629
  350EMI    H0P 6647   4.462   4.126   4.548  1.1019  1.3298 -0.5274
  350EMI    H0Q 6648   4.555   3.974   4.571 -0.9555 -0.7391 -0.9634
  350EMI    N02 6649   4.589   3.916   4.310  0.1399  0.1825 -0.7215
  350EMI    H0E 6650   4.487   4.089   4.303  3.8945  0.6181 -0.9505
  351EMI    C01 6651   1.922   5.090   1.542 -0.1780  0.5182 -0.3255
  351EMI    C04 6652   1.884   5.244   1.688  0.1711  0.2389  0.0701
  351EMI    C03 6653   2.002   5.193   1.717 -0.1018  0.3109 -0.4448
  351EMI    H07 6654   1.909   5.031   1.454 -0.9128 -0.0061  0.1257
  351EMI    H09 6655   1.827   5.323   1.732  0.8692  0.3333  0.8476
  351EMI    H08 6656   2.068   5.212   1.799 -0.8858 -2.3571  0.9405
  351EMI    C05 6657   2.139   4.988   1.651  0.2495 -0.6592  0.0767
  351EMI    H0B 6658   2.151   4.933   1.559 -0.0182  0.4248 -0.6151
  351EMI    H0C 6659   2.222   5.056   1.664  0.3364  0.0571 -3.3278
  351EMI    H0D 6660   2.135   4.906   1.721  0.0976 -1.1010 -0.4393
  351EMI    N00 6661   2.018   5.081   1.636  0.2878  1.2032  0.0971
  351EMI    C06 6662   1.714   5.220   1.494  0.1129 -0.2264  0.4108
  351EMI    H0F 6663   1.694   5.324   1.515  1.6031  0.4101 -1.1256
  351EMI    C0N 6664   1.742   5.225   1.340 -0.1645  0.6698 -0.4773
  351EMI    H0O 6665   1.727   5.129   1.290 -0.5936  0.9874 -0.9755
  351EMI    H0P 6666   1.675   5.292   1.288 -2.6650 -2.3224 -1.4493
  351EMI    H0Q 6667   1.843   5.259   1.321 -0.2433  0.9802 -0.3444
  351EMI    N02 6668   1.833   5.178   1.571  0.1329  0.2153 -0.5956
  351EMI    H0E 6669   1.626   5.164   1.525 -0.5302  0.9777  0.8066
  352EMI    C01 6670   3.687   1.148   4.850  0.4997 -0.4583  0.0561
  352EMI    C04 6671   3.513   1.247   4.937  0.6140  0.5867 -0.1167
  352EMI    C03 6672   3.548   1.153   5.024  0.5881  0.1954 -0.4547
  352EMI    H07 6673   3.757   1.115   4.777  0.1210 -3.2365  0.8265
  352EMI    H09 6674   3.443   1.328   4.947 -0.4968 -0.0931 -1.8867
  352EMI    H08 6675   3.503   1.124   5.117  1.0292 -0.0433 -0.3155
  352EMI    C05 6676   3.729   0.978   5.021 -0.4094  0.5435 -0.6754
  352EMI    H0B 6677   3.743   0.998   5.126  0.8214 -1.8292 -0.3120
  352EMI    H0C 6678   3.672   0.887   5.008 -1.0920  1.1474 -2.0952
  352EMI    H0D 6679   3.827   0.964   4.978  1.3053  1.8741  2.4731
  352EMI    N00 6680   3.662   1.088   4.964 -0.1060 -0.3867  0.0711
  352EMI    C06 6681   3.601   1.360   4.732 -0.2723  0.0704 -0.1560
  352EMI    H0F 6682   3.641   1.317   4.641 -3.4054  0.5171 -1.8787
  352EMI    C0N 6683   3.460   1.410   4.699 -0.2823  0.0899 -0.6470
  352EMI    H0O 6684   3.466   1.474   4.613 -0.5218  3.2467  1.5254
  352EMI    H0P 6685   3.394   1.327   4.672  2.2970 -1.8561 -1.3407
  352EMI    H0Q 6686   3.421   1.456   4.789 -0.7880 -0.1586 -0.7298
  352EMI    N02 6687   3.602   1.252   4.837 -0.6409  0.3715  0.3027
  352EMI    H0E 6688   3.676   1.436   4.751 -0.4359  0.6363 -1.6411
  353EMI    C01 6689   4.561   3.764   3.773  0.0105  0.9437  0.1213
  353EMI    C04 6690   4.509   3.932   3.895 -0.5747 -0.3425 -0.0061
  353EMI    C03 6691   4.642   3.927   3.891  0.6384  0.7739  0.2570
  353EMI    H07 6692   4.558   3.664   3.734 -0.8488  0.9693  0.1105
  353EMI    H09 6693   4.449   3.994   3.959  0.9755  2.6078 -1.2116
  353EMI    H08 6694   4.712   3.978   3.952  1.5566 -0.0234 -0.1044
  353EMI    C05 6695   4.809   3.769   3.778 -0.8591 -0.0837  0.1103
  353EMI    H0B 6696   4.838   3.696   3.852  0.3547 -0.8883 -1.1171
  353EMI    H0C 6697   4.802   3.735   3.676 -1.5582  3.3893 -1.1333
  353EMI    H0D 6698   4.885   3.846   3.782 -0.7845 -0.1939  1.2731
  353EMI    N00 6699   4.671   3.817   3.807 -0.2372  0.0247  0.2967
  353EMI    C06 6700   4.311   3.798   3.802 -0.4952  0.3617 -0.4183
  353EMI    H0F 6701   4.257   3.882   3.843 -1.6863 -1.5327  2.2411
  353EMI    C0N 6702   4.273   3.789   3.661  0.3507  0.5190  0.7799
  353EMI    H0O 6703   4.169   3.765   3.644  0.8054 -1.1477  0.1566
  353EMI    H0P 6704   4.269   3.891   3.623  0.1151  1.1271  2.3856
  353EMI    H0Q 6705   4.336   3.726   3.599  1.1853 -1.1436  3.1539
  353EMI    N02 6706   4.456   3.837   3.814 -0.1083 -0.6069 -0.3832
  353EMI    H0E 6707   4.297   3.703   3.851  1.4141  1.0640  1.6577
  354EMI    C01 6708   4.850   3.233   4.322 -0.2412  0.7815  0.2264
  354EMI    C04 6709   4.946   3.056   4.251 -0.1504  0.2611  0.0049
  354EMI    C03 6710   4.937   3.046   4.384 -0.9546  0.2482 -0.0122
  354EMI    H07 6711   4.815   3.334   4.330 -2.0841  0.1266  0.8220
  354EMI    H09 6712   4.982   2.983   4.182  1.8146  2.2768 -1.2173
  354EMI    H08 6713   4.976   2.969   4.447 -2.0019 -1.1358 -0.9826
  354EMI    C05 6714   4.849   3.205   4.570 -0.5157  0.1524  0.1528
  354EMI    H0B 6715   4.803   3.123   4.623 -0.3887  0.4650  0.7613
  354EMI    H0C 6716   4.942   3.223   4.623  1.2626 -1.4706 -2.2398
  354EMI    H0D 6717   4.776   3.285   4.568 -1.6153 -0.7585  1.8785
  354EMI    N00 6718   4.871   3.159   4.430  0.7874  0.3666 -0.2606
  354EMI    C06 6719   4.873   3.208   4.076 -0.6174  0.2403  0.4394
  354EMI    H0F 6720   4.968   3.203   4.025 -0.1600  1.9101  1.0733
  354EMI    C0N 6721   4.757   3.122   4.024 -0.5898  0.2969  0.1496
  354EMI    H0O 6722   4.737   3.174   3.931  1.8492  1.6152  0.2591
  354EMI    H0P 6723   4.785   3.018   4.012  0.2650  0.4517  0.7449
  354EMI    H0Q 6724   4.671   3.124   4.089  0.4387 -3.3562  1.8772
  354EMI    N02 6725   4.886   3.168   4.211 -0.1035 -0.8287  0.7666
  354EMI    H0E 6726   4.853   3.314   4.074  0.3073  0.4101 -0.3048
  355EMI    C01 6727   1.818   4.941   0.261 -0.0632  0.1046  0.3727
  355EMI    C04 6728   1.806   5.070   0.438  0.0937  0.8394 -0.5357
  355EMI    C03 6729   1.688   5.073   0.375 -0.0750 -0.1371 -0.4951
  355EMI    H07 6730   1.862   4.874   0.191 -0.7781 -0.8729  0.8278
  355EMI    H09 6731   1.845   5.127   0.520  0.6095 -0.3952  0.1096
  355EMI    H08 6732   1.605   5.138   0.393 -1.1287 -2.0159  1.9251
  355EMI    C05 6733   1.582   4.961   0.173 -0.1541  0.1148 -0.0366
  355EMI    H0B 6734   1.606   4.869   0.121 -0.3285 -0.6864  1.2496
  355EMI    H0C 6735   1.492   4.938   0.227 -0.6556 -0.8674 -1.2300
  355EMI    H0D 6736   1.555   5.045   0.112 -1.9024  1.3262  2.2860
  355EMI    N00 6737   1.697   4.984   0.267  0.0542 -0.6360 -0.0633
  355EMI    C06 6738   2.036   4.959   0.387 -0.1450  0.3274 -0.1773
  355EMI    H0F 6739   2.086   5.054   0.370  0.7382 -0.1758 -0.4562
  355EMI    C0N 6740   2.061   4.903   0.526  0.5922 -0.2361 -0.1360
  355EMI    H0O 6741   1.977   4.841   0.555  0.7582 -0.2308  0.3570
  355EMI    H0P 6742   2.145   4.835   0.519  1.0590  0.3812 -0.7418
  355EMI    H0Q 6743   2.082   4.961   0.615  1.4091  1.0109 -1.0914
  355EMI    N02 6744   1.891   4.988   0.361 -1.0009  0.1531  0.5429
  355EMI    H0E 6745   2.075   4.889   0.314  0.4760  0.4638  0.0184
  356EMI    C01 6746   0.996   5.001   4.969 -1.1611 -0.0446 -0.3310
  356EMI    C04 6747   0.863   4.850   5.039  0.5822 -0.2318 -0.3794
  356EMI    C03 6748   0.852   4.962   5.121  0.1301  0.8974  0.4186
  356EMI    H07 6749   1.061   5.055   4.903 -1.7436  0.8242 -0.2158
  356EMI    H09 6750   0.812   4.758   5.052  0.4096  0.1898  2.7120
  356EMI    H08 6751   0.781   4.962   5.202 -0.7571  2.2826 -0.3292
  356EMI    C05 6752   0.962   5.195   5.118 -0.5477  0.2198 -0.4894
  356EMI    H0B 6753   1.061   5.214   5.158 -1.6523 -0.5744  2.9259
  356EMI    H0C 6754   0.940   5.262   5.036 -0.3150  1.1170  0.1762
  356EMI    H0D 6755   0.892   5.210   5.199  1.7158 -0.5024  1.7349
  356EMI    N00 6756   0.942   5.058   5.070  0.2458 -0.3613  0.6592
  356EMI    C06 6757   0.989   4.795   4.823 -0.2059 -0.1108  0.8174
  356EMI    H0F 6758   1.018   4.693   4.842 -1.5331 -0.9651 -1.4010
  356EMI    C0N 6759   0.889   4.788   4.712  0.1316  0.1430  0.5412
  356EMI    H0O 6760   0.815   4.717   4.749 -0.0281  0.5188  0.9532
  356EMI    H0P 6761   0.835   4.879   4.689 -1.4470 -0.2610  2.3248
  356EMI    H0Q 6762   0.926   4.740   4.623  0.6453  0.9994  0.2854
  356EMI    N02 6763   0.949   4.883   4.937 -0.0029  0.4528  0.1919
  356EMI    H0E 6764   1.083   4.835   4.787 -0.1359  0.3737  1.5094
  357EMI    C01 6765   0.257   3.289   0.918 -0.3139  0.2680 -0.4297
  357EMI    C04 6766   0.148   3.217   0.740  0.1928 -0.3253 -0.2418
  357EMI    C03 6767   0.276   3.171   0.740 -0.1973  0.3746  0.4506
  357EMI    H07 6768   0.274   3.336   1.012  0.3817 -0.6257 -0.0854
  357EMI    H09 6769   0.064   3.193   0.679  0.7675  2.6555 -2.4321
  357EMI    H08 6770   0.319   3.089   0.687  1.5133 -0.4448  2.9131
  357EMI    C05 6771   0.475   3.154   0.892 -1.2707  0.1156  0.2430
  357EMI    H0B 6772   0.540   3.145   0.806 -3.2666 -0.6887 -1.2692
  357EMI    H0C 6773   0.511   3.215   0.973  1.6246 -2.8977  1.4538
  357EMI    H0D 6774   0.451   3.054   0.924 -0.4665 -0.0000  0.4991
  357EMI    N00 6775   0.341   3.206   0.855 -0.3464 -0.5779  0.5516
  357EMI    C06 6776   0.011   3.346   0.916 -0.3454  0.0554 -0.0877
  357EMI    H0F 6777  -0.049   3.256   0.921  1.2873 -1.0750  0.2751
  357EMI    C0N 6778   0.020   3.412   1.054 -0.0054 -0.4992 -0.5056
  357EMI    H0O 6779   0.036   3.333   1.126  1.7065  0.3556  0.0937
  357EMI    H0P 6780   0.096   3.488   1.058 -1.0034  0.6051 -1.5877
  357EMI    H0Q 6781  -0.076   3.458   1.076 -0.6201 -2.8550  2.3636
  357EMI    N02 6782   0.139   3.287   0.860 -0.2549  0.0218 -0.2470
  357EMI    H0E 6783  -0.032   3.415   0.846 -1.1921 -3.1302 -3.0048
  358EMI    C01 6784   4.682   5.003   2.473 -0.6839 -0.1410 -0.1346
  358EMI    C04 6785   4.771   4.821   2.428 -0.3754 -0.3996  0.4484
  358EMI    C03 6786   4.678   4.789   2.517 -0.0070  0.2422 -0.4388
  358EMI    H07 6787   4.652   5.106   2.473  2.5157  0.9399 -1.6751
  358EMI    H09 6788   4.833   4.745   2.386 -3.2900 -2.3099 -0.8099
  358EMI    H08 6789   4.655   4.688   2.545  1.8844 -0.6081 -1.7571
  358EMI    C05 6790   4.481   4.927   2.600  0.4350  0.4297 -0.3277
  358EMI    H0B 6791   4.504   4.965   2.698  0.6996  0.3815 -0.3698
  358EMI    H0C 6792   4.431   5.008   2.550 -1.7511 -0.3345  0.5253
  358EMI    H0D 6793   4.418   4.839   2.600  0.5687  0.2551  2.3368
  358EMI    N00 6794   4.613   4.907   2.537 -0.0415  0.2678 -0.3414
  358EMI    C06 6795   4.877   5.011   2.320 -0.5000 -0.0550  0.1487
  358EMI    H0F 6796   4.962   5.047   2.375  0.4481  0.6830 -1.7112
  358EMI    C0N 6797   4.925   4.914   2.213  0.1718  0.0938  0.3362
  358EMI    H0O 6798   4.836   4.881   2.160  0.5645 -0.0423 -0.2418
  358EMI    H0P 6799   4.994   4.967   2.148  1.6706 -0.2001  1.6331
  358EMI    H0Q 6800   4.986   4.835   2.255  0.6917  1.6847  2.8127
  358EMI    N02 6801   4.781   4.950   2.408  0.3342 -0.0879 -0.3636
  358EMI    H0E 6802   4.838   5.095   2.264 -1.6519  0.6162  1.8856
  359EMI    C01 6803   3.553   4.812   4.262  0.0786 -0.6869 -0.3683
  359EMI    C04 6804   3.335   4.840   4.257  0.5317 -0.8570 -0.8619
  359EMI    C03 6805   3.376   4.862   4.386 -0.2977 -0.0907  0.1701
  359EMI    H07 6806   3.654   4.803   4.228 -0.1209 -4.8539 -0.4230
  359EMI    H09 6807   3.243   4.860   4.208 -0.0221 -1.6279 -0.1632
  359EMI    H08 6808   3.330   4.899   4.475 -0.6563 -0.9709  0.3623
  359EMI    C05 6809   3.604   4.836   4.509  0.2231  0.0158 -0.0408
  359EMI    H0B 6810   3.658   4.743   4.503  1.4097  0.7442 -1.2426
  359EMI    H0C 6811   3.664   4.925   4.496 -1.7085  1.5017  0.5708
  359EMI    H0D 6812   3.557   4.840   4.606  0.9572 -2.5499  0.4764
  359EMI    N00 6813   3.517   4.841   4.383 -0.1134  0.2790 -0.4503
  359EMI    C06 6814   3.450   4.789   4.041 -0.1991 -0.2112 -0.2324
  359EMI    H0F 6815   3.451   4.682   4.029 -0.8848 -0.2259 -0.2114
  359EMI    C0N 6816   3.340   4.844   3.956 -0.3870 -0.5499 -0.1205
  359EMI    H0O 6817   3.368   4.830   3.852 -0.8026  0.2031 -0.3393
  359EMI    H0P 6818   3.249   4.788   3.976 -1.4946  0.3638 -2.2496
  359EMI    H0Q 6819   3.326   4.950   3.975  1.6770 -0.4601  1.2076
  359EMI    N02 6820   3.452   4.815   4.183 -0.1512  0.2069 -0.1376
  359EMI    H0E 6821   3.539   4.830   3.996 -0.4779 -0.0491 -0.6464
  360EMI    C01 6822   1.244   1.728   0.961 -0.4022 -0.3455 -0.6296
  360EMI    C04 6823   1.325   1.888   0.849 -0.1857  0.2509  0.0265
  360EMI    C03 6824   1.207   1.937   0.883  0.3199 -0.1742  0.0439
  360EMI    H07 6825   1.238   1.639   1.020  1.1096 -0.5783 -0.7732
  360EMI    H09 6826   1.395   1.930   0.780  0.6675 -1.1002  0.0197
  360EMI    H08 6827   1.153   2.029   0.874 -1.6110 -1.0493  1.8424
  360EMI    C05 6828   1.025   1.826   1.019 -0.1078  0.1945 -0.3838
  360EMI    H0B 6829   0.948   1.819   0.944  0.4106 -2.1534 -0.7816
  360EMI    H0C 6830   1.016   1.755   1.100  0.6232  2.1454  1.4967
  360EMI    H0D 6831   1.007   1.913   1.081  0.2096 -1.2679  1.8806
  360EMI    N00 6832   1.155   1.829   0.958 -0.0574  0.3358  0.7317
  360EMI    C06 6833   1.443   1.664   0.830  0.0358 -0.6598  0.4146
  360EMI    H0F 6834   1.414   1.560   0.838  0.0771 -0.6043  1.3951
  360EMI    C0N 6835   1.464   1.687   0.681  0.7265  0.8375  0.1639
  360EMI    H0O 6836   1.559   1.739   0.678  1.2861 -0.1051  1.0714
  360EMI    H0P 6837   1.473   1.595   0.625 -0.0856  0.6484  0.3334
  360EMI    H0Q 6838   1.389   1.751   0.636 -0.2158  0.2674  0.8927
  360EMI    N02 6839   1.340   1.756   0.886 -0.0415 -0.5074 -0.8655
  360EMI    H0E 6840   1.529   1.690   0.890 -0.2462 -0.6735  0.8326
  361EMI    C01 6841   0.835   3.203   0.730 -0.3721 -0.0749  0.4742
  361EMI    C04 6842   0.805   3.394   0.837 -0.0092  0.0768 -0.2688
  361EMI    C03 6843   0.709   3.387   0.743  0.4515  0.1412 -0.6290
  361EMI    H07 6844   0.879   3.117   0.684  0.3014  0.7317 -0.4067
  361EMI    H09 6845   0.826   3.476   0.903  0.8370  0.7979 -1.3986
  361EMI    H08 6846   0.633   3.458   0.718  0.2769  0.1836 -0.0052
  361EMI    C05 6847   0.645   3.233   0.559  0.2698  0.0589  0.1872
  361EMI    H0B 6848   0.544   3.208   0.588 -0.2035  2.0348  0.4172
  361EMI    H0C 6849   0.632   3.322   0.499 -0.9982  0.5794  1.1890
  361EMI    H0D 6850   0.685   3.153   0.498  0.9994 -0.3254  1.1509
  361EMI    N00 6851   0.725   3.267   0.678  0.7439  0.2970 -0.7661
  361EMI    C06 6852   1.009   3.241   0.891 -0.6013 -0.3940 -0.0522
  361EMI    H0F 6853   1.004   3.144   0.939  2.0930 -0.3058  0.5155
  361EMI    C0N 6854   1.128   3.244   0.803  0.0135 -0.2684 -0.0391
  361EMI    H0O 6855   1.134   3.331   0.737  1.4072 -1.2777 -1.3116
  361EMI    H0P 6856   1.217   3.259   0.862  1.6926 -0.5057 -2.3500
  361EMI    H0Q 6857   1.139   3.159   0.737  0.4418  1.0660 -1.7834
  361EMI    N02 6858   0.886   3.275   0.821  0.2984 -0.5268  0.1950
  361EMI    H0E 6859   1.018   3.313   0.971 -0.3679  0.5052 -0.8673
  362EMI    C01 6860   3.729   4.350   2.363  0.4936 -0.3171  0.2030
  362EMI    C04 6861   3.550   4.335   2.488  0.1023 -0.3589  0.0362
  362EMI    C03 6862   3.512   4.382   2.366  0.1905  0.8635 -0.3532
  362EMI    H07 6863   3.828   4.344   2.325  0.1225  2.2619 -1.4417
  362EMI    H09 6864   3.489   4.330   2.575  1.3813 -0.7959  0.9450
  362EMI    H08 6865   3.409   4.395   2.341 -0.1957  0.9046  1.1636
  362EMI    C05 6866   3.622   4.439   2.161 -0.3850 -0.7868  0.0755
  362EMI    H0B 6867   3.660   4.540   2.153  1.0164 -1.3747 -1.5924
  362EMI    H0C 6868   3.676   4.367   2.101  0.5088  0.7992 -1.1262
  362EMI    H0D 6869   3.523   4.434   2.118 -0.0259 -1.4921 -0.7024
  362EMI    N00 6870   3.624   4.401   2.298 -0.0667  0.6380 -0.3509
  362EMI    C06 6871   3.766   4.253   2.595  0.1065 -0.3474 -0.3388
  362EMI    H0F 6872   3.852   4.231   2.533  1.1507  0.6675  0.6881
  362EMI    C0N 6873   3.798   4.352   2.708  0.1827  0.0762  0.1967
  362EMI    H0O 6874   3.704   4.386   2.750  1.2261  2.0199  1.0993
  362EMI    H0P 6875   3.866   4.297   2.771 -0.1299 -0.3303  0.1851
  362EMI    H0Q 6876   3.851   4.440   2.672 -1.2011  2.1590  2.8815
  362EMI    N02 6877   3.684   4.317   2.488  0.4540 -0.1417 -0.2594
  362EMI    H0E 6878   3.723   4.159   2.627 -0.4946 -0.1089 -0.4324
  363EMI    C01 6879   3.462   0.732   1.120 -0.0064 -0.7252 -0.4588
  363EMI    C04 6880   3.551   0.784   1.308 -0.5220 -0.2822  0.2535
  363EMI    C03 6881   3.494   0.894   1.259  0.7559  0.1682 -0.1768
  363EMI    H07 6882   3.433   0.670   1.038 -1.8924 -0.6723  0.1280
  363EMI    H09 6883   3.623   0.773   1.387  1.5118 -0.3770 -1.5310
  363EMI    H08 6884   3.503   0.997   1.286  0.1470  0.5921 -1.5192
  363EMI    C05 6885   3.348   0.943   1.059 -0.1080  0.4274  0.4699
  363EMI    H0B 6886   3.318   1.029   1.118  1.5264 -1.7911  4.9876
  363EMI    H0C 6887   3.401   0.959   0.966  1.9853  1.3770  1.7423
  363EMI    H0D 6888   3.262   0.885   1.031  0.6340 -1.1456  1.3461
  363EMI    N00 6889   3.427   0.859   1.150  0.4691  0.1774  0.6457
  363EMI    C06 6890   3.569   0.545   1.239  0.7404  0.5911  0.6601
  363EMI    H0F 6891   3.550   0.497   1.145  1.1057  3.0410 -0.7532
  363EMI    C0N 6892   3.721   0.541   1.275  0.3385  0.3037 -0.1642
  363EMI    H0O 6893   3.765   0.442   1.277  1.4431  0.7215 -1.8404
  363EMI    H0P 6894   3.783   0.601   1.208  2.8571 -2.4845 -0.5508
  363EMI    H0Q 6895   3.725   0.574   1.378 -1.8628  0.3748 -0.0568
  363EMI    N02 6896   3.526   0.680   1.220  0.3363 -0.5523  0.1876
  363EMI    H0E 6897   3.510   0.492   1.312  1.1247  0.0496  0.5830
  364EMI    C01 6898   4.211   3.569   4.386  0.1147 -0.3889 -0.3316
  364EMI    C04 6899   4.336   3.406   4.327 -0.2131  0.4937  0.2365
  364EMI    C03 6900   4.385   3.454   4.443  0.3410  0.2315  0.9578
  364EMI    H07 6901   4.136   3.645   4.389  2.1853  1.7341  1.9007
  364EMI    H09 6902   4.362   3.325   4.263  0.0746  2.9227 -2.9896
  364EMI    H08 6903   4.462   3.420   4.509  1.8086  0.5201 -0.5096
  364EMI    C05 6904   4.344   3.677   4.569 -0.1219 -0.2947 -0.0493
  364EMI    H0B 6905   4.383   3.636   4.661  0.7740  1.3543  0.3336
  364EMI    H0C 6906   4.424   3.740   4.532  0.5435 -0.9987  0.1626
  364EMI    H0D 6907   4.252   3.732   4.583 -0.9316 -1.3847 -0.8973
  364EMI    N00 6908   4.315   3.567   4.467 -0.2035 -0.8599 -0.9172
  364EMI    C06 6909   4.138   3.459   4.180 -0.1832  0.5424  0.5401
  364EMI    H0F 6910   4.193   3.492   4.093 -1.0702  2.4697  0.6624
  364EMI    C0N 6911   4.086   3.317   4.159  0.4491  0.3444 -0.7674
  364EMI    H0O 6912   3.990   3.319   4.110  0.8079 -0.1725 -1.5216
  364EMI    H0P 6913   4.154   3.248   4.108  1.6136 -0.9491  2.2881
  364EMI    H0Q 6914   4.062   3.275   4.256  1.2990  0.5793 -0.4451
  364EMI    N02 6915   4.220   3.475   4.301 -0.3342 -0.3988  0.2873
  364EMI    H0E 6916   4.065   3.538   4.185 -0.6202  0.2071 -0.3001
  365EMI    C01 6917   1.972   3.062   1.363  0.4800 -0.2720 -0.0130
  365EMI    C04 6918   2.132   3.144   1.487  0.6322  0.1498 -0.1386
  365EMI    C03 6919   2.043   3.244   1.468 -0.2878  0.1009 -0.9769
  365EMI    H07 6920   1.913   3.002   1.297  1.1793 -0.1910 -0.7251
  365EMI    H09 6921   2.221   3.145   1.547 -0.0049  1.6349  0.8085
  365EMI    H08 6922   2.049   3.345   1.499 -0.9520  0.5938 -2.3464
  365EMI    C05 6923   1.824   3.255   1.353 -0.0037  0.8190 -0.2754
  365EMI    H0B 6924   1.739   3.206   1.398  1.5264 -1.5353  0.2465
  365EMI    H0C 6925   1.829   3.357   1.389  0.2423  0.6610  0.1427
  365EMI    H0D 6926   1.814   3.270   1.246 -3.4236 -1.1612 -0.3750
  365EMI    N00 6927   1.939   3.188   1.395 -0.6342 -0.0365  0.0785
  365EMI    C06 6928   2.159   2.898   1.414  0.0744  0.8672  0.3987
  365EMI    H0F 6929   2.114   2.836   1.338  1.2558  1.0533 -0.4771
  365EMI    C0N 6930   2.306   2.912   1.371  0.0479 -0.0250  0.3991
  365EMI    H0O 6931   2.318   2.889   1.265 -1.0998  1.0131  0.0173
  365EMI    H0P 6932   2.324   3.018   1.383  2.0715 -0.1244 -1.1546
  365EMI    H0Q 6933   2.379   2.857   1.428 -1.0354 -0.3237  1.5405
  365EMI    N02 6934   2.089   3.031   1.417 -0.6088 -0.4050 -0.4226
  365EMI    H0E 6935   2.145   2.840   1.504  1.9569  0.4343  0.4447
  366EMI    C01 6936   4.418   0.799   3.012  0.2489  0.4124 -0.0148
  366EMI    C04 6937   4.541   0.686   3.146  0.6279 -0.5932  0.2172
  366EMI    C03 6938   4.425   0.616   3.136 -0.2552 -0.3633 -0.5512
  366EMI    H07 6939   4.390   0.869   2.936  0.1807  0.1266 -0.2541
  366EMI    H09 6940   4.625   0.679   3.212  0.4122 -1.0887  0.4441
  366EMI    H08 6941   4.382   0.527   3.177 -1.1519 -0.0018 -0.6873
  366EMI    C05 6942   4.219   0.652   2.989 -0.2471  0.1853  0.4653
  366EMI    H0B 6943   4.187   0.722   2.913 -1.7714 -0.1362  0.7816
  366EMI    H0C 6944   4.230   0.555   2.945  0.7883 -0.0525  1.1937
  366EMI    H0D 6945   4.135   0.637   3.055 -0.8591 -1.8802 -0.7279
  366EMI    N00 6946   4.350   0.689   3.042  0.3778  0.3997  0.3569
  366EMI    C06 6947   4.629   0.920   3.061  0.4327  0.1112 -0.1710
  366EMI    H0F 6948   4.722   0.887   3.106 -0.1883 -0.7267  0.5329
  366EMI    C0N 6949   4.663   0.965   2.918  0.2002 -0.0186  0.2281
  366EMI    H0O 6950   4.706   0.881   2.865  1.7187  0.0915  1.2268
  366EMI    H0P 6951   4.572   0.994   2.866 -1.1524 -2.9013  0.7780
  366EMI    H0Q 6952   4.730   1.050   2.925  0.4035 -0.2006  0.5074
  366EMI    N02 6953   4.534   0.803   3.072 -0.2594 -0.2358 -0.3351
  366EMI    H0E 6954   4.595   0.990   3.135 -0.9999 -0.5496 -0.1784
  367EMI    C01 6955   0.339   2.690   0.866 -0.1124  0.2510 -0.4890
  367EMI    C04 6956   0.302   2.476   0.867  0.3259 -0.1195 -0.2989
  367EMI    C03 6957   0.239   2.529   0.764 -0.3272 -0.2827  0.7974
  367EMI    H07 6958   0.383   2.786   0.885 -0.7783  0.1448  1.8626
  367EMI    H09 6959   0.295   2.373   0.894  0.6034 -0.2508 -0.7221
  367EMI    H08 6960   0.186   2.478   0.687  0.9722 -0.4733 -0.0002
  367EMI    C05 6961   0.230   2.750   0.655  0.5306 -0.1860 -0.9092
  367EMI    H0B 6962   0.126   2.735   0.630  0.1552 -1.0035  0.9858
  367EMI    H0C 6963   0.246   2.849   0.694 -0.5866  0.5672 -2.2641
  367EMI    H0D 6964   0.282   2.748   0.561  1.5712  0.9218 -0.3915
  367EMI    N00 6965   0.265   2.661   0.762  0.1092  0.2785 -0.5058
  367EMI    C06 6966   0.451   2.560   1.054  0.6251 -0.2282 -0.1527
  367EMI    H0F 6967   0.388   2.574   1.141  1.1785  2.7672 -0.1261
  367EMI    C0N 6968   0.530   2.428   1.039  0.4901  0.0910  0.5912
  367EMI    H0O 6969   0.462   2.344   1.048 -3.4809  3.0456  1.0033
  367EMI    H0P 6970   0.583   2.432   0.945 -0.0312 -0.5324  0.2646
  367EMI    H0Q 6971   0.598   2.414   1.122 -1.9884 -2.3716  2.3884
  367EMI    N02 6972   0.367   2.578   0.934  0.0771  0.0157  0.0493
  367EMI    H0E 6973   0.525   2.638   1.049  0.9433 -0.6304 -3.1555
  368EMI    C01 6974   2.137   2.819   4.716 -0.1870 -0.4284  0.6273
  368EMI    C04 6975   2.320   2.791   4.824  0.0749  0.1452 -0.0546
  368EMI    C03 6976   2.334   2.717   4.717 -0.2852 -1.1012  0.1652
  368EMI    H07 6977   2.036   2.845   4.690 -0.7000 -1.1957  1.8095
  368EMI    H09 6978   2.384   2.802   4.908 -0.9896  0.8241  0.6885
  368EMI    H08 6979   2.420   2.656   4.703  0.6184 -0.0109  0.7651
  368EMI    C05 6980   2.192   2.695   4.505 -0.2676 -0.1211 -0.1588
  368EMI    H0B 6981   2.220   2.764   4.428  0.6709 -0.6118 -0.2669
  368EMI    H0C 6982   2.247   2.603   4.490 -0.9798 -0.3635 -1.4629
  368EMI    H0D 6983   2.087   2.671   4.490  0.1875 -3.3557  0.9857
  368EMI    N00 6984   2.219   2.746   4.639 -0.4419  0.8362 -0.6353
  368EMI    C06 6985   2.114   2.915   4.937 -0.4077  0.0343  0.6299
  368EMI    H0F 6986   2.015   2.877   4.917 -1.2100  1.8816  0.8161
  368EMI    C0N 6987   2.150   2.838   5.068 -0.0980  0.2282  0.6143
  368EMI    H0O 6988   2.082   2.868   5.148 -1.2939  0.2791 -0.3877
  368EMI    H0P 6989   2.126   2.735   5.045 -1.9754  0.5571  0.9329
  368EMI    H0Q 6990   2.253   2.866   5.089  0.2560 -1.6752  1.6248
  368EMI    N02 6991   2.198   2.861   4.821  0.4592 -0.3189 -1.0339
  368EMI    H0E 6992   2.117   3.023   4.945 -0.2182  0.0314  0.6177
  369EMI    C01 6993   0.281   4.293   3.133  0.0485 -0.2746  0.6680
  369EMI    C04 6994   0.265   4.094   3.214 -0.3592  0.0233 -0.2389
  369EMI    C03 6995   0.203   4.090   3.097 -0.3515 -0.1499  0.3074
  369EMI    H07 6996   0.310   4.394   3.114 -0.1762 -0.7459 -2.7709
  369EMI    H09 6997   0.293   4.007   3.268 -3.5438 -0.6933  0.4468
  369EMI    H08 6998   0.164   3.999   3.056  0.6762 -1.0380  1.2317
  369EMI    C05 6999   0.190   4.258   2.908 -0.2825 -0.6718  0.0089
  369EMI    H0B 7000   0.086   4.260   2.880 -0.8370 -0.5881  1.9095
  369EMI    H0C 7001   0.222   4.360   2.895 -2.1245 -0.2710 -1.9611
  369EMI    H0D 7002   0.248   4.183   2.857  0.1918  0.1590 -0.6947
  369EMI    N00 7003   0.214   4.217   3.047 -0.0935 -0.6102  0.1876
  369EMI    C06 7004   0.372   4.278   3.359 -0.1047  0.4090  0.7803
  369EMI    H0F 7005   0.431   4.367   3.342  1.3746 -0.5262  0.8427
  369EMI    C0N 7006   0.268   4.293   3.474  0.0308  0.1706 -0.0325
  369EMI    H0O 7007   0.207   4.382   3.471 -0.0017  0.1696  0.5599
  369EMI    H0P 7008   0.196   4.212   3.474 -1.6790  1.6233  0.6782
  369EMI    H0Q 7009   0.322   4.295   3.568  1.8407 -0.7130 -1.0038
  369EMI    N02 7010   0.309   4.223   3.237  0.4450  0.0365  0.2220
  369EMI    H0E 7011   0.435   4.193   3.380 -3.4422 -2.2451  0.9653
  370EMI    C01 7012   3.250   2.128   2.365  0.9109  0.7425 -0.2254
  370EMI    C04 7013   3.392   2.032   2.232  0.3047  0.3428 -0.2489
  370EMI    C03 7014   3.281   2.056   2.163 -0.1548 -0.3793  0.2480
  370EMI    H07 7015   3.204   2.177   2.448 -0.6092 -2.4473  0.9781
  370EMI    H09 7016   3.479   1.981   2.196 -0.1119 -1.8041  1.5469
  370EMI    H08 7017   3.254   2.051   2.060 -2.9552  0.8254  0.8310
  370EMI    C05 7018   3.056   2.161   2.206 -1.3396  0.1346  0.3358
  370EMI    H0B 7019   3.023   2.225   2.286  0.7697  0.6899  0.8277
  370EMI    H0C 7020   3.053   2.216   2.113  0.2511  4.0421  2.3529
  370EMI    H0D 7021   2.998   2.070   2.210 -0.5495 -0.4351 -0.7599
  370EMI    N00 7022   3.194   2.126   2.245 -0.4393  0.3220 -0.0127
  370EMI    C06 7023   3.472   2.102   2.466  0.2804 -0.4457 -0.0087
  370EMI    H0F 7024   3.567   2.081   2.418 -0.0525 -2.1738  0.0245
  370EMI    C0N 7025   3.480   2.253   2.506  0.5225  0.0127  0.9091
  370EMI    H0O 7026   3.413   2.275   2.589 -1.8641  2.3467 -1.4486
  370EMI    H0P 7027   3.581   2.270   2.541  1.3935 -0.2737 -1.2687
  370EMI    H0Q 7028   3.461   2.322   2.424 -0.7457 -1.8552 -0.4679
  370EMI    N02 7029   3.370   2.088   2.360 -0.7849  0.5725 -0.2429
  370EMI    H0E 7030   3.455   2.039   2.552 -0.1349 -0.8601 -0.3968
  371EMI    C01 7031   0.535   0.664   4.617  0.4185 -0.4476 -0.4091
  371EMI    C04 7032   0.455   0.673   4.413  0.4921  0.6952  0.8592
  371EMI    C03 7033   0.556   0.583   4.422  0.7893  0.0579 -0.1621
  371EMI    H07 7034   0.548   0.689   4.720  2.1776 -0.6189 -0.5699
  371EMI    H09 7035   0.395   0.697   4.329  0.3452 -2.6760 -0.1732
  371EMI    H08 7036   0.599   0.527   4.342  0.2731 -0.3964 -0.1333
  371EMI    C05 7037   0.708   0.479   4.593  0.9832 -0.5912  0.0916
  371EMI    H0B 7038   0.713   0.472   4.700 -0.3201  0.5078  0.2571
  371EMI    H0C 7039   0.697   0.381   4.549  2.2503 -0.1910 -1.1858
  371EMI    H0D 7040   0.803   0.514   4.556 -0.4994  2.7411 -1.0370
  371EMI    N00 7041   0.598   0.572   4.549 -0.0996  0.4320  0.2414
  371EMI    C06 7042   0.349   0.827   4.584 -0.6849 -0.5870 -0.6407
  371EMI    H0F 7043   0.392   0.925   4.570  0.7085 -0.9443  0.7847
  371EMI    C0N 7044   0.215   0.819   4.518  0.3472  0.0824  0.1147
  371EMI    H0O 7045   0.151   0.746   4.566  0.6564 -0.0389  0.3446
  371EMI    H0P 7046   0.157   0.911   4.519  1.2797  0.6892 -0.1561
  371EMI    H0Q 7047   0.235   0.806   4.413 -0.1006  5.3322 -0.9055
  371EMI    N02 7048   0.441   0.724   4.544 -0.1331  0.4217 -0.0854
  371EMI    H0E 7049   0.334   0.813   4.690 -0.1855  2.9573  0.0236
  372EMI    C01 7050   3.369   0.048   0.525 -1.2216 -0.8362  0.6464
  372EMI    C04 7051   3.156   0.022   0.523 -0.5014  0.4362  0.1012
  372EMI    C03 7052   3.207  -0.087   0.582  0.6479 -0.0757 -0.3707
  372EMI    H07 7053   3.468   0.076   0.494 -1.6186  0.2041  0.3099
  372EMI    H09 7054   3.055   0.048   0.500  0.0876  2.2165 -0.6353
  372EMI    H08 7055   3.148  -0.168   0.620 -0.1707  0.8300  0.3357
  372EMI    C05 7056   3.434  -0.144   0.668  0.0527  0.2167  0.1250
  372EMI    H0B 7057   3.533  -0.109   0.645  0.5988 -1.2256  0.1925
  372EMI    H0C 7058   3.424  -0.132   0.775  0.6262 -2.9201  0.6321
  372EMI    H0D 7059   3.426  -0.249   0.645  0.9580 -1.0307  4.4821
  372EMI    N00 7060   3.340  -0.063   0.596 -0.5303 -0.5859 -0.3949
  372EMI    C06 7061   3.256   0.231   0.421 -1.7930  0.0455 -0.0531
  372EMI    H0F 7062   3.265   0.217   0.315 -1.0615 -0.1067  0.0267
  372EMI    C0N 7063   3.142   0.312   0.469  0.3378  1.2573  0.2618
  372EMI    H0O 7064   3.049   0.259   0.455  0.6278  0.6012  0.7949
  372EMI    H0P 7065   3.149   0.327   0.576 -0.0541  0.7357  0.3656
  372EMI    H0Q 7066   3.127   0.405   0.415 -1.6314  0.5560 -0.5130
  372EMI    N02 7067   3.261   0.104   0.485  0.3424  0.1603 -0.6045
  372EMI    H0E 7068   3.344   0.284   0.453 -0.5783 -1.0641 -1.4398
  373EMI    C01 7069   2.677   4.786   2.064 -1.4708  0.6436 -0.2512
  373EMI    C04 7070   2.499   4.674   2.125 -0.2877 -0.4364  0.8481
  373EMI    C03 7071   2.462   4.795   2.082 -0.4094  0.5521 -0.4772
  373EMI    H07 7072   2.780   4.802   2.039 -1.7516  0.7144 -1.4519
  373EMI    H09 7073   2.434   4.599   2.163  0.1848 -0.5680  1.4063
  373EMI    H08 7074   2.363   4.834   2.086 -0.3544  0.9656 -2.4232
  373EMI    C05 7075   2.580   4.997   1.996  0.3945 -0.3328 -0.1889
  373EMI    H0B 7076   2.610   5.071   2.069 -0.0754  0.6376 -0.9615
  373EMI    H0C 7077   2.644   5.002   1.909  1.8106 -0.5327  0.8008
  373EMI    H0D 7078   2.483   5.021   1.956  0.4158 -2.6323 -1.8158
  373EMI    N00 7079   2.575   4.867   2.046 -0.6937 -0.4046 -0.2948
  373EMI    C06 7080   2.716   4.566   2.163 -0.1819  0.4270  0.5668
  373EMI    H0F 7081   2.760   4.583   2.260  2.0464 -3.1701  0.3814
  373EMI    C0N 7082   2.648   4.433   2.157  0.7866  0.3757 -0.0405
  373EMI    H0O 7083   2.557   4.425   2.215  0.1381 -0.2577 -1.1139
  373EMI    H0P 7084   2.609   4.412   2.059 -2.6408  0.3538  1.2064
  373EMI    H0Q 7085   2.716   4.363   2.205  1.1279  0.3058 -0.6108
  373EMI    N02 7086   2.633   4.672   2.112  0.2893  0.5492 -0.2858
  373EMI    H0E 7087   2.800   4.564   2.095 -0.9744  0.5948 -0.4427
  374EMI    C01 7088   0.862   3.273   4.892 -0.1382  0.5696 -0.1227
  374EMI    C04 7089   0.811   3.467   4.966  0.1351 -1.2960  0.2911
  374EMI    C03 7090   0.737   3.442   4.859 -0.5076 -0.1454 -0.4278
  374EMI    H07 7091   0.909   3.178   4.877  2.8187  1.7709  0.7517
  374EMI    H09 7092   0.811   3.544   5.040  1.0337 -1.9011  0.9422
  374EMI    H08 7093   0.660   3.499   4.811 -0.3258  1.7158  1.3692
  374EMI    C05 7094   0.702   3.247   4.706 -0.7067 -0.0394 -0.0359
  374EMI    H0B 7095   0.669   3.312   4.626 -2.2937 -0.6777  0.0629
  374EMI    H0C 7096   0.777   3.177   4.673  0.2319  0.2714  1.3593
  374EMI    H0D 7097   0.621   3.184   4.740  0.8938 -1.9480  0.4369
  374EMI    N00 7098   0.774   3.323   4.808 -0.0726 -0.4789 -0.6700
  374EMI    C06 7099   0.978   3.349   5.108  0.9539  0.6013  0.4786
  374EMI    H0F 7100   0.996   3.242   5.107  0.4032  0.3705  3.5420
  374EMI    C0N 7101   1.115   3.417   5.109 -0.1889 -0.2273  0.6039
  374EMI    H0O 7102   1.186   3.379   5.037  1.7866  0.6736  1.9964
  374EMI    H0P 7103   1.098   3.521   5.083 -0.1391 -0.1851  0.7380
  374EMI    H0Q 7104   1.156   3.414   5.210 -1.8514  0.7754  1.3482
  374EMI    N02 7105   0.892   3.363   4.988  0.0710 -0.2866 -0.6901
  374EMI    H0E 7106   0.924   3.369   5.200  0.8094  5.9254 -0.4286
  375EMI    C01 7107   1.021   1.738   0.575  0.5161  0.2499  0.6787
  375EMI    C04 7108   0.816   1.762   0.654  0.5352  0.2191  0.1326
  375EMI    C03 7109   0.872   1.659   0.715 -0.1487  0.1833 -0.3480
  375EMI    H07 7110   1.108   1.751   0.513 -1.3103 -0.6914 -2.3142
  375EMI    H09 7111   0.722   1.811   0.661  0.1722 -0.3985 -0.2829
  375EMI    H08 7112   0.838   1.589   0.787 -0.3225  0.2688 -0.3474
  375EMI    C05 7113   1.080   1.518   0.684 -0.6947  0.1965  0.1224
  375EMI    H0B 7114   1.123   1.517   0.783  0.9562  1.3595 -0.5311
  375EMI    H0C 7115   1.034   1.423   0.662  1.0891 -0.3061 -1.7685
  375EMI    H0D 7116   1.158   1.529   0.610  0.2566  2.1274  1.3244
  375EMI    N00 7117   0.997   1.640   0.655  0.6912  0.0384 -0.5327
  375EMI    C06 7118   0.900   1.926   0.476  0.0827  0.0103  0.5622
  375EMI    H0F 7119   0.980   1.921   0.403  1.0970 -2.2852  1.7258
  375EMI    C0N 7120   0.769   1.922   0.400 -0.1630  0.3763 -0.6906
  375EMI    H0O 7121   0.772   1.844   0.325 -1.3500 -0.7975  0.4209
  375EMI    H0P 7122   0.685   1.928   0.468  1.0555  3.2620  0.7138
  375EMI    H0Q 7123   0.756   2.006   0.333 -1.7087 -0.4668 -1.5107
  375EMI    N02 7124   0.914   1.815   0.574  0.5056 -0.4790 -0.2164
  375EMI    H0E 7125   0.914   2.025   0.517  1.1998  0.8072 -1.5381
  376EMI    C01 7126   4.514   3.887   1.334 -0.0562 -0.4321 -0.1288
  376EMI    C04 7127   4.493   4.092   1.404  0.2330  0.5730  0.0691
  376EMI    C03 7128   4.400   4.066   1.309  0.0335 -0.2687 -0.4983
  376EMI    H07 7129   4.543   3.785   1.321 -3.7327 -1.3810 -2.4107
  376EMI    H09 7130   4.500   4.179   1.466 -0.4337  1.7415 -1.4225
  376EMI    H08 7131   4.313   4.120   1.277 -1.0195 -1.2517  0.6314
  376EMI    C05 7132   4.352   3.877   1.147  0.3953  0.3015  0.2063
  376EMI    H0B 7133   4.342   3.940   1.060  2.0973 -3.9708 -3.5013
  376EMI    H0C 7134   4.395   3.781   1.122 -0.4808 -0.2469  0.7443
  376EMI    H0D 7135   4.254   3.850   1.184  0.1109 -0.7497 -1.2193
  376EMI    N00 7136   4.424   3.944   1.254  0.4527 -0.4486 -0.3734
  376EMI    C06 7137   4.656   3.948   1.530 -1.1156 -0.3524 -0.1653
  376EMI    H0F 7138   4.732   4.025   1.529  1.2812 -2.4586  2.2535
  376EMI    C0N 7139   4.598   3.935   1.660 -0.7691 -0.1516  0.6943
  376EMI    H0O 7140   4.545   4.024   1.689  1.2517  1.2993  0.1152
  376EMI    H0P 7141   4.510   3.871   1.654 -1.3688  0.5775  1.4353
  376EMI    H0Q 7142   4.664   3.907   1.742 -0.5933  0.4098  0.7446
  376EMI    N02 7143   4.563   3.975   1.420 -0.0557  0.4065  0.3037
  376EMI    H0E 7144   4.718   3.861   1.516 -3.2383 -2.2673  1.4677
  377EMI    C01 7145   2.730   4.741   0.602  0.3303 -0.1235 -0.0789
  377EMI    C04 7146   2.799   4.620   0.427  0.6370  0.1998 -0.8812
  377EMI    C03 7147   2.897   4.627   0.517  0.2571 -0.2430 -0.3112
  377EMI    H07 7148   2.658   4.800   0.656 -1.5741 -3.5781  1.4670
  377EMI    H09 7149   2.800   4.578   0.329  2.5129 -0.8065 -0.4864
  377EMI    H08 7150   2.991   4.577   0.522 -0.4286 -1.4495  2.3991
  377EMI    C05 7151   2.918   4.736   0.756 -0.2921  0.2082  0.3820
  377EMI    H0B 7152   2.888   4.839   0.762 -1.7094 -0.1404 -0.3095
  377EMI    H0C 7153   2.884   4.683   0.843 -0.8453  1.8609  1.1918
  377EMI    H0D 7154   3.024   4.714   0.749 -0.1040  1.2871 -0.4526
  377EMI    N00 7155   2.850   4.698   0.636 -0.4032  0.2359 -0.6329
  377EMI    C06 7156   2.553   4.697   0.422  0.4495 -0.0762 -0.0299
  377EMI    H0F 7157   2.513   4.597   0.421  2.0953 -0.8664  2.5935
  377EMI    C0N 7158   2.461   4.804   0.468 -0.3161 -0.0476  0.2533
  377EMI    H0O 7159   2.383   4.820   0.394 -0.2804  1.3866  0.4968
  377EMI    H0P 7160   2.419   4.765   0.561  1.0662 -0.0270  0.9136
  377EMI    H0Q 7161   2.507   4.901   0.481 -0.6720  0.3538 -1.2963
  377EMI    N02 7162   2.689   4.682   0.488 -0.2350  0.1617  0.0960
  377EMI    H0E 7163   2.568   4.724   0.319  0.6281  1.3344  0.3518
  378EMI    C01 7164   1.177   1.083   1.930  0.4653  0.1520 -0.6190
  378EMI    C04 7165   0.964   1.066   1.956 -0.0621  0.4997 -0.5501
  378EMI    C03 7166   1.019   1.114   2.069 -0.2385 -0.0613 -0.0878
  378EMI    H07 7167   1.274   1.052   1.896  0.9370  1.0851 -0.1395
  378EMI    H09 7168   0.866   1.050   1.917 -1.1579  0.3880  2.0902
  378EMI    H08 7169   0.964   1.147   2.153 -1.8796 -1.1325 -0.6987
  378EMI    C05 7170   1.240   1.201   2.143  0.2780  0.6533  0.7195
  378EMI    H0B 7171   1.251   1.141   2.232  1.5722 -0.2269  0.0073
  378EMI    H0C 7172   1.335   1.211   2.092  0.9957  2.8127  2.3371
  378EMI    H0D 7173   1.195   1.293   2.177 -0.2154  0.1467  1.4819
  378EMI    N00 7174   1.151   1.136   2.054  0.7059 -0.4024  0.5931
  378EMI    C06 7175   1.053   1.010   1.720 -0.6024  0.3548  0.1734
  378EMI    H0F 7176   1.152   0.995   1.679 -1.7330 -0.2508 -2.5881
  378EMI    C0N 7177   0.981   0.874   1.703  0.6745 -0.0650  0.1768
  378EMI    H0O 7178   0.877   0.864   1.732  0.0806  0.9067 -1.4757
  378EMI    H0P 7179   0.983   0.858   1.596  1.2744 -1.0216  0.3255
  378EMI    H0Q 7180   1.029   0.793   1.756  0.2264 -0.7783 -0.4905
  378EMI    N02 7181   1.067   1.049   1.864 -0.0128  0.0148  0.2444
  378EMI    H0E 7182   1.000   1.095   1.680 -1.9782  0.4722  2.0998
  379EMI    C01 7183   2.394   4.119   4.759  0.1899 -0.2860 -0.3342
  379EMI    C04 7184   2.459   4.027   4.565  0.5061  0.2220  0.4012
  379EMI    C03 7185   2.559   4.091   4.621  0.2252  0.4738 -0.7904
  379EMI    H07 7186   2.330   4.153   4.839  0.4003  1.4045 -0.8445
  379EMI    H09 7187   2.451   3.959   4.483 -1.7675 -1.2372  1.7116
  379EMI    H08 7188   2.659   4.081   4.585  0.5251  0.1011  0.1023
  379EMI    C05 7189   2.620   4.225   4.828  0.4017  0.2248  0.5018
  379EMI    H0B 7190   2.708   4.262   4.778  0.9310  0.3472  1.4866
  379EMI    H0C 7191   2.560   4.305   4.870  1.8589  1.8569 -0.3953
  379EMI    H0D 7192   2.655   4.152   4.899 -0.1861 -1.2091 -0.6163
  379EMI    N00 7193   2.525   4.153   4.738 -0.5391 -0.0756  0.2060
  379EMI    C06 7194   2.229   3.979   4.654  0.5230  0.2258 -0.6368
  379EMI    H0F 7195   2.200   3.966   4.757  0.9524 -1.7707 -0.7305
  379EMI    C0N 7196   2.122   4.050   4.576 -0.1935 -0.4448  0.3511
  379EMI    H0O 7197   2.151   4.065   4.473  1.1140  1.7716  0.9526
  379EMI    H0P 7198   2.024   4.010   4.598 -0.6917  0.7053  0.2976
  379EMI    H0Q 7199   2.132   4.153   4.611 -1.3858  1.1490 -3.4866
  379EMI    N02 7200   2.355   4.046   4.654  0.5574 -0.9283  0.1985
  379EMI    H0E 7201   2.248   3.882   4.612 -1.8876 -0.7087  0.2826
  380EMI    C01 7202   3.077   0.878   4.571  0.3150 -0.6615  0.3151
  380EMI    C04 7203   3.278   0.903   4.648  0.7742  0.5186  0.3989
  380EMI    C03 7204   3.241   1.014   4.590  0.0150 -0.2750  0.0634
  380EMI    H07 7205   2.979   0.845   4.541 -0.1147  1.4732 -0.8374
  380EMI    H09 7206   3.364   0.868   4.699 -0.2579 -0.1543  1.7572
  380EMI    H08 7207   3.289   1.107   4.569 -0.1558 -0.5561 -1.7031
  380EMI    C05 7208   3.043   1.104   4.473 -0.1813  0.2898 -0.0468
  380EMI    H0B 7209   2.936   1.087   4.474  0.2084 -2.6276  1.0280
  380EMI    H0C 7210   3.055   1.195   4.530  0.7769 -0.2262  0.5891
  380EMI    H0D 7211   3.067   1.103   4.368 -0.1355 -0.5005 -0.0339
  380EMI    N00 7212   3.115   0.999   4.541  0.6481  0.2355 -0.4360
  380EMI    C06 7213   3.192   0.674   4.663 -0.2334  0.0244  0.3444
  380EMI    H0F 7214   3.175   0.658   4.768 -1.0611 -0.4673  0.1417
  380EMI    C0N 7215   3.113   0.580   4.573 -0.4130 -0.1034 -0.1712
  380EMI    H0O 7216   3.009   0.609   4.565 -0.0210  1.7056  0.5888
  380EMI    H0P 7217   3.158   0.597   4.476 -2.2108  2.0911 -0.7200
  380EMI    H0Q 7218   3.104   0.475   4.595  0.6961 -0.5434 -1.6648
  380EMI    N02 7219   3.172   0.820   4.633 -0.0477  0.4660  0.6389
  380EMI    H0E 7220   3.299   0.656   4.658 -0.1795 -0.0382  1.5363
  381EMI    C01 7221   1.756   4.352   2.298  0.1046  0.7790  0.5148
  381EMI    C04 7222   1.725   4.412   2.092 -0.1755  0.3492  0.4272
  381EMI    C03 7223   1.791   4.296   2.093  0.5653  0.1160  0.3602
  381EMI    H07 7224   1.749   4.338   2.403 -0.5236 -0.2887  0.3415
  381EMI    H09 7225   1.719   4.478   2.008  0.5590 -0.6657 -0.4530
  381EMI    H08 7226   1.820   4.244   2.004 -1.6917  0.5688 -0.7261
  381EMI    C05 7227   1.876   4.137   2.258  0.4276 -0.5382 -0.3397
  381EMI    H0B 7228   1.936   4.154   2.347 -0.3022  0.1534  0.0392
  381EMI    H0C 7229   1.803   4.063   2.288 -0.7285 -0.4807 -2.7800
  381EMI    H0D 7230   1.939   4.095   2.182  1.1980  0.6208 -0.3573
  381EMI    N00 7231   1.805   4.257   2.222 -1.0683 -0.6537 -0.4496
  381EMI    C06 7232   1.620   4.565   2.260 -0.7586  0.2475 -0.3186
  381EMI    H0F 7233   1.675   4.600   2.347 -0.5561 -1.1515  0.1386
  381EMI    C0N 7234   1.620   4.678   2.163 -0.7626  0.3159 -0.7241
  381EMI    H0O 7235   1.556   4.682   2.076 -1.3924  0.5054 -0.2656
  381EMI    H0P 7236   1.594   4.764   2.225 -1.5869 -1.5527  1.6912
  381EMI    H0Q 7237   1.721   4.684   2.125 -0.3217 -2.5019 -0.1934
  381EMI    N02 7238   1.692   4.444   2.219 -0.2350 -0.1382 -0.3405
  381EMI    H0E 7239   1.518   4.540   2.285 -0.5823 -1.8263 -1.4892
  382EMI    C01 7240   0.007   2.044   1.932  1.0261 -0.1915 -0.3887
  382EMI    C04 7241  -0.091   1.856   1.899 -0.0270  0.8209  1.0343
  382EMI    C03 7242   0.038   1.842   1.870 -0.8863  0.3536  0.3565
  382EMI    H07 7243   0.019   2.145   1.966  1.0248  0.0237 -1.0129
  382EMI    H09 7244  -0.167   1.781   1.892 -0.0984  1.0707 -2.0730
  382EMI    H08 7245   0.085   1.748   1.850 -4.5081 -1.4247 -0.6285
  382EMI    C05 7246   0.238   1.977   1.871  0.8367  0.2478 -0.0514
  382EMI    H0B 7247   0.244   2.050   1.792 -2.9251  0.5145 -0.2848
  382EMI    H0C 7248   0.288   2.020   1.956 -0.7382 -0.8764  1.5164
  382EMI    H0D 7249   0.280   1.882   1.843  1.4049  0.0177  1.5090
  382EMI    N00 7250   0.101   1.961   1.886  0.3940  0.5047 -0.6392
  382EMI    C06 7251  -0.236   2.055   1.985  0.7163  0.1450 -0.2905
  382EMI    H0F 7252  -0.232   2.150   1.933  0.0049  1.9544  2.7474
  382EMI    C0N 7253  -0.361   1.987   1.942 -0.6014  0.1769 -0.2332
  382EMI    H0O 7254  -0.443   2.056   1.962  0.8357  1.6903  0.7404
  382EMI    H0P 7255  -0.344   1.973   1.836  1.0711 -1.0453  0.1696
  382EMI    H0Q 7256  -0.369   1.897   2.001  0.5156 -0.8961 -1.6691
  382EMI    N02 7257  -0.110   1.991   1.937 -0.7170  0.1143 -0.0836
  382EMI    H0E 7258  -0.237   2.079   2.090  0.6019  0.0467 -0.2698
  383EMI    C01 7259   4.592   2.188   3.143 -0.0548 -0.0635 -0.7872
  383EMI    C04 7260   4.446   2.247   3.283  0.4265 -0.3258  0.5178
  383EMI    C03 7261   4.541   2.340   3.279  0.4583  0.0426 -0.1430
  383EMI    H07 7262   4.653   2.124   3.083  0.4418 -0.5482  0.2135
  383EMI    H09 7263   4.361   2.239   3.347 -0.8649  1.5401 -0.8723
  383EMI    H08 7264   4.557   2.430   3.335  1.0455 -1.0673  1.5502
  383EMI    C05 7265   4.766   2.347   3.165  0.1774  0.0529  0.1496
  383EMI    H0B 7266   4.774   2.447   3.124 -0.0101 -0.4936 -1.2604
  383EMI    H0C 7267   4.818   2.342   3.260  0.7408  0.3034 -0.1397
  383EMI    H0D 7268   4.816   2.279   3.098  0.6558  2.0107 -1.5925
  383EMI    N00 7269   4.634   2.296   3.193  0.0640 -0.3904  0.4215
  383EMI    C06 7270   4.400   2.025   3.174 -0.8286 -1.1413  0.7523
  383EMI    H0F 7271   4.454   1.957   3.110  0.8181  1.5134 -0.8817
  383EMI    C0N 7272   4.383   1.963   3.313 -0.4315 -0.2511 -0.1738
  383EMI    H0O 7273   4.318   1.879   3.294 -0.2237 -0.4738  0.0888
  383EMI    H0P 7274   4.479   1.925   3.347 -0.5890  0.0610  0.6555
  383EMI    H0Q 7275   4.331   2.017   3.391 -0.5261 -0.7726  0.1302
  383EMI    N02 7276   4.475   2.157   3.187 -0.0016 -0.7366 -0.3207
  383EMI    H0E 7277   4.312   2.049   3.116 -1.2998 -1.2404  1.4161
  384EMI    C01 7278   5.111   1.252   0.674 -0.6819  0.3430  0.6079
  384EMI    C04 7279   5.243   1.374   0.781 -0.4053 -0.4492 -0.0705
  384EMI    C03 7280   5.154   1.451   0.723 -0.4764 -0.0043 -0.5402
  384EMI    H07 7281   5.065   1.167   0.629  1.1958  0.3728 -1.5309
  384EMI    H09 7282   5.327   1.402   0.841 -0.5343  3.1531 -1.3441
  384EMI    H08 7283   5.151   1.558   0.720  3.9359  0.2809 -0.8016
  384EMI    C05 7284   4.972   1.414   0.558 -0.2097 -0.2032  0.8237
  384EMI    H0B 7285   4.921   1.325   0.525  1.0959 -0.4293 -0.7539
  384EMI    H0C 7286   4.912   1.483   0.616 -0.2294  1.5762 -1.1830
  384EMI    H0D 7287   5.022   1.459   0.474  1.1308 -1.9195  0.6294
  384EMI    N00 7288   5.072   1.373   0.648  0.6183  0.2443 -0.2695
  384EMI    C06 7289   5.299   1.123   0.787 -0.0360  0.2804 -0.7361
  384EMI    H0F 7290   5.252   1.035   0.745  0.3505 -0.2153 -0.1551
  384EMI    C0N 7291   5.440   1.130   0.752 -1.2868  0.0697 -0.1379
  384EMI    H0O 7292   5.494   1.167   0.838 -1.4127 -2.2109  1.0016
  384EMI    H0P 7293   5.483   1.033   0.729 -0.8798  0.6059 -1.7478
  384EMI    H0Q 7294   5.460   1.203   0.674 -0.6306 -0.2636 -0.2896
  384EMI    N02 7295   5.220   1.244   0.749  0.4244  1.0014 -0.4962
  384EMI    H0E 7296   5.284   1.096   0.890 -0.8636 -0.5089 -1.0501
  385EMI    C01 7297   3.116   2.907   2.516 -0.4179 -0.7978 -0.7766
  385EMI    C04 7298   3.282   3.007   2.611 -0.6626  0.1258 -0.1407
  385EMI    C03 7299   3.220   2.944   2.704 -0.6183  0.2381 -0.0292
  385EMI    H07 7300   3.046   2.865   2.448 -1.7590 -4.2768  2.4168
  385EMI    H09 7301   3.372   3.065   2.613 -0.2317 -0.4518 -1.5004
  385EMI    H08 7302   3.247   2.943   2.808 -0.2559 -1.0699 -0.1175
  385EMI    C05 7303   2.996   2.820   2.714  0.3242 -0.1070 -0.1204
  385EMI    H0B 7304   3.029   2.734   2.770 -0.1047  0.5674  1.2088
  385EMI    H0C 7305   2.938   2.881   2.781  0.0430 -0.6848  0.1748
  385EMI    H0D 7306   2.925   2.782   2.642  0.3103  0.4376 -0.3962
  385EMI    N00 7307   3.110   2.884   2.647 -0.2173  0.5247  0.2839
  385EMI    C06 7308   3.257   3.048   2.360 -0.2211 -0.4468  0.2192
  385EMI    H0F 7309   3.229   2.974   2.286  0.5763 -0.8627  0.3196
  385EMI    C0N 7310   3.193   3.185   2.348 -0.0298  0.6183  0.0064
  385EMI    H0O 7311   3.229   3.245   2.265 -0.1206  0.1370 -0.3851
  385EMI    H0P 7312   3.087   3.173   2.333 -0.2472  0.7963  1.2647
  385EMI    H0Q 7313   3.199   3.242   2.440 -0.7191  1.3308 -0.3762
  385EMI    N02 7314   3.221   2.988   2.492  0.4304  0.0671 -0.8004
  385EMI    H0E 7315   3.365   3.048   2.352 -0.1399  0.8742  1.0355
  386EMI    C01 7316   3.648   0.683   3.710  0.3781 -0.9448 -0.1975
  386EMI    C04 7317   3.445   0.617   3.715 -0.0805 -0.0458 -0.1146
  386EMI    C03 7318   3.513   0.547   3.627  0.2607 -0.2224 -0.0128
  386EMI    H07 7319   3.735   0.744   3.724 -0.7057  0.8913 -1.0869
  386EMI    H09 7320   3.342   0.612   3.740 -0.0014  0.0066  0.2380
  386EMI    H08 7321   3.482   0.471   3.558  3.0590  0.7408 -2.5316
  386EMI    C05 7322   3.754   0.539   3.551 -0.1280  0.0842  0.3774
  386EMI    H0B 7323   3.725   0.541   3.447 -1.0993  0.1755  0.6390
  386EMI    H0C 7324   3.847   0.589   3.574 -1.0317  2.3933 -0.7051
  386EMI    H0D 7325   3.765   0.435   3.580 -0.4481  0.2855  1.2623
  386EMI    N00 7326   3.643   0.590   3.628  0.4119  0.8045 -0.7584
  386EMI    C06 7327   3.493   0.825   3.850  0.3073  0.4565  0.1608
  386EMI    H0F 7328   3.411   0.794   3.913 -0.2350 -0.0563 -0.7895
  386EMI    C0N 7329   3.604   0.861   3.939 -0.0790 -0.0013 -0.1450
  386EMI    H0O 7330   3.685   0.916   3.893 -1.2292  1.8056 -0.1064
  386EMI    H0P 7331   3.569   0.931   4.015 -0.1538  0.0645 -0.2395
  386EMI    H0Q 7332   3.638   0.777   3.998  0.4424  0.9341  0.9281
  386EMI    N02 7333   3.529   0.710   3.760 -0.2592  0.6999 -0.3651
  386EMI    H0E 7334   3.465   0.913   3.794  1.4612 -1.2260 -3.3330
  387EMI    C01 7335   1.390   0.246   2.317 -0.3921 -0.2032 -0.0620
  387EMI    C04 7336   1.188   0.214   2.244  0.4209  0.3248  0.0751
  387EMI    C03 7337   1.239   0.092   2.272 -0.0364  0.7534 -0.1629
  387EMI    H07 7338   1.484   0.289   2.347 -0.3738  1.5039 -2.3329
  387EMI    H09 7339   1.095   0.239   2.198  0.4506 -1.3524 -0.9753
  387EMI    H08 7340   1.208  -0.009   2.256  0.6993  0.8117 -2.2768
  387EMI    C05 7341   1.471   0.013   2.331  1.2634 -0.1668  0.2875
  387EMI    H0B 7342   1.430  -0.064   2.394  0.0977  0.8518  0.8233
  387EMI    H0C 7343   1.489  -0.014   2.228 -1.1855  3.0078 -1.1464
  387EMI    H0D 7344   1.558   0.063   2.370  3.2503 -0.6523 -3.1075
  387EMI    N00 7345   1.369   0.114   2.316 -0.1210  0.6238 -0.0131
  387EMI    C06 7346   1.264   0.457   2.257 -0.3615 -0.8688  0.3372
  387EMI    H0F 7347   1.243   0.465   2.152  2.4426 -0.9304 -0.3064
  387EMI    C0N 7348   1.165   0.516   2.345 -0.3743 -0.2609  0.1559
  387EMI    H0O 7349   1.171   0.625   2.340  1.0541 -0.3571 -0.6939
  387EMI    H0P 7350   1.067   0.475   2.324  0.1213 -0.6945 -1.4514
  387EMI    H0Q 7351   1.190   0.492   2.448  1.2209  0.3562 -0.0701
  387EMI    N02 7352   1.280   0.311   2.286  0.5370  0.1018  0.4351
  387EMI    H0E 7353   1.360   0.503   2.276 -1.0982  0.7149  0.3745
  388EMI    C01 7354   0.025   4.273   1.219  0.2789 -0.3005  0.1516
  388EMI    C04 7355   0.060   4.332   1.009 -0.3030 -0.2415  0.5871
  388EMI    C03 7356   0.106   4.429   1.087  0.0838 -0.5584  0.2311
  388EMI    H07 7357  -0.020   4.213   1.295 -1.6733 -1.1185 -1.5748
  388EMI    H09 7358   0.074   4.316   0.904  0.6805  0.8381  0.5384
  388EMI    H08 7359   0.173   4.510   1.067 -0.1479 -1.0396 -2.9736
  388EMI    C05 7360   0.100   4.473   1.345  0.2139  0.0713  0.5264
  388EMI    H0B 7361   0.090   4.419   1.437 -0.7313 -0.7484 -0.0295
  388EMI    H0C 7362   0.187   4.537   1.347  0.6223 -0.3071 -1.7070
  388EMI    H0D 7363   0.023   4.548   1.353  0.6962  0.4995  1.2198
  388EMI    N00 7364   0.078   4.392   1.221  0.2275  0.0071 -0.5161
  388EMI    C06 7365  -0.084   4.132   1.043  0.6385 -0.2048 -0.5160
  388EMI    H0F 7366  -0.153   4.163   0.966 -0.7684 -1.6890  0.0909
  388EMI    C0N 7367  -0.001   4.015   0.990 -0.1234 -0.2111 -0.0449
  388EMI    H0O 7368   0.029   4.042   0.890 -0.0763  0.7392  0.2179
  388EMI    H0P 7369   0.074   3.983   1.062 -0.0799 -1.7178 -0.7250
  388EMI    H0Q 7370  -0.060   3.925   0.976  2.6095 -1.9709 -1.0547
  388EMI    N02 7371  -0.007   4.244   1.095  0.2228 -0.3410 -0.3675
  388EMI    H0E 7372  -0.138   4.091   1.127 -0.4997  0.7166 -0.7776
  389EMI    C01 7373   3.045   3.345   4.243  0.3982 -1.1480 -0.1354
  389EMI    C04 7374   3.220   3.220   4.278 -0.0452 -0.1603 -0.7381
  389EMI    C03 7375   3.119   3.158   4.339  0.3887  0.3967  1.0017
  389EMI    H07 7376   2.976   3.417   4.205  0.9359 -1.0172 -0.8800
  389EMI    H09 7377   3.324   3.202   4.296 -0.3139  0.0777  1.3188
  389EMI    H08 7378   3.129   3.083   4.416  0.5513  1.1063  1.6857
  389EMI    C05 7379   2.872   3.194   4.347  0.2127 -0.1658 -0.0554
  389EMI    H0B 7380   2.798   3.253   4.295  0.5321  0.1364 -0.1705
  389EMI    H0C 7381   2.851   3.088   4.341 -0.9366  0.0696 -0.5371
  389EMI    H0D 7382   2.863   3.225   4.451 -0.3947  1.7487 -0.6321
  389EMI    N00 7383   3.004   3.231   4.301 -0.0096  0.2067 -0.0270
  389EMI    C06 7384   3.262   3.437   4.155 -0.7268  0.7664 -0.5859
  389EMI    H0F 7385   3.313   3.387   4.074  0.9502  0.7843  0.4077
  389EMI    C0N 7386   3.186   3.559   4.095 -0.6366  0.3881  0.3262
  389EMI    H0O 7387   3.084   3.530   4.073 -0.5468  0.2400  0.1081
  389EMI    H0P 7388   3.193   3.636   4.171 -0.3183 -0.0092  0.7068
  389EMI    H0Q 7389   3.240   3.598   4.009 -0.2005 -1.5240 -0.3108
  389EMI    N02 7390   3.173   3.335   4.217  0.0549 -0.4639  0.3663
  389EMI    H0E 7391   3.329   3.468   4.234 -0.6852 -0.1089 -0.2728
  390EMI    C01 7392   3.650   0.002   2.317 -0.4515  0.2845  0.2895
  390EMI    C04 7393   3.475   0.115   2.376  0.7267  0.3243  0.2133
  390EMI    C03 7394   3.557   0.200   2.321  0.2774 -0.3590 -0.4365
  390EMI    H07 7395   3.721  -0.077   2.308 -0.2784  0.3974  0.6504
  390EMI    H09 7396   3.376   0.133   2.413 -0.7381 -0.5576 -2.9524
  390EMI    H08 7397   3.541   0.306   2.313  1.6546  0.2684  3.4038
  390EMI    C05 7398   3.806   0.195   2.258  0.2767 -0.4982 -0.0704
  390EMI    H0B 7399   3.776   0.253   2.172 -0.0042  0.5809  0.7244
  390EMI    H0C 7400   3.857   0.242   2.341  0.0187  1.5986 -1.0374
  390EMI    H0D 7401   3.861   0.107   2.228 -1.6772 -1.8823  0.2281
  390EMI    N00 7402   3.675   0.133   2.292 -0.4108  0.5273 -0.4953
  390EMI    C06 7403   3.462  -0.132   2.417 -0.0298 -0.0286 -0.3203
  390EMI    H0F 7404   3.507  -0.159   2.511  0.0900  0.1882 -0.3160
  390EMI    C0N 7405   3.314  -0.148   2.394  0.4951  0.5193 -0.5148
  390EMI    H0O 7406   3.254  -0.070   2.439 -1.6738 -0.4710 -1.5368
  390EMI    H0P 7407   3.281  -0.144   2.290  2.2532  0.0574 -1.1162
  390EMI    H0Q 7408   3.272  -0.234   2.446 -2.4453  2.7806  1.1613
  390EMI    N02 7409   3.528  -0.011   2.363 -0.5176 -0.0626 -0.2039
  390EMI    H0E 7410   3.517  -0.201   2.354 -0.6121 -0.0461 -0.8217
  391EMI    C01 7411   1.696   4.990   0.833 -0.6759  0.7617  0.5170
  391EMI    C04 7412   1.516   5.083   0.894  0.0325  0.0030  0.0096
  391EMI    C03 7413   1.612   5.161   0.933 -0.4837  0.3830  0.9585
  391EMI    H07 7414   1.768   4.917   0.803 -2.4307 -0.8431  0.0776
  391EMI    H09 7415   1.411   5.101   0.902 -0.0779 -0.8137  0.4831
  391EMI    H08 7416   1.598   5.258   0.976 -0.3112  0.7636  0.1739
  391EMI    C05 7417   1.859   5.165   0.927  0.2419  0.0892  0.1213
  391EMI    H0B 7418   1.883   5.144   1.030  1.3549  1.0506  0.0795
  391EMI    H0C 7419   1.936   5.139   0.856 -1.4012  0.1197 -1.7684
  391EMI    H0D 7420   1.850   5.273   0.936 -0.2918 -0.0631  1.5893
  391EMI    N00 7421   1.730   5.101   0.899 -0.2922  0.0081 -0.2354
  391EMI    C06 7422   1.498   4.859   0.769 -0.5480  0.0923  0.0056
  391EMI    H0F 7423   1.560   4.816   0.692 -2.1010 -0.7879 -0.7993
  391EMI    C0N 7424   1.438   4.758   0.870 -0.0781  0.1291 -0.6735
  391EMI    H0O 7425   1.393   4.677   0.815  0.3668 -0.1889 -0.5787
  391EMI    H0P 7426   1.525   4.723   0.925 -0.5575 -0.9451 -0.5638
  391EMI    H0Q 7427   1.372   4.793   0.949  0.3341 -3.3519  1.4012
  391EMI    N02 7428   1.569   4.973   0.832 -0.1489 -0.6584 -0.5174
  391EMI    H0E 7429   1.424   4.902   0.702  0.6943 -0.6650 -1.9303
  392EMI    C01 7430   4.309   2.501   0.617 -0.7488  0.1884 -0.1595
  392EMI    C04 7431   4.140   2.395   0.566 -0.4609  0.4525  0.3088
  392EMI    C03 7432   4.100   2.519   0.560 -0.7292  1.0042 -1.0456
  392EMI    H07 7433   4.403   2.536   0.653 -0.9518  1.0491 -0.4564
  392EMI    H09 7434   4.093   2.304   0.536  0.9882 -0.4097  0.5845
  392EMI    H08 7435   4.004   2.562   0.543 -2.8501 -2.9835 -0.4317
  392EMI    C05 7436   4.223   2.744   0.595  0.7038  0.1398  0.5040
  392EMI    H0B 7437   4.325   2.767   0.569  0.7736  1.4938  1.8159
  392EMI    H0C 7438   4.151   2.792   0.530 -0.4422  0.4265  1.9113
  392EMI    H0D 7439   4.198   2.776   0.695 -0.5780 -0.0971  0.2774
  392EMI    N00 7440   4.212   2.589   0.599 -0.1848 -0.0465 -0.5083
  392EMI    C06 7441   4.352   2.256   0.579  0.0157 -0.5415  0.1627
  392EMI    H0F 7442   4.322   2.184   0.654 -0.8877 -1.8596 -1.4085
  392EMI    C0N 7443   4.368   2.200   0.434  0.6889 -1.0741 -0.2091
  392EMI    H0O 7444   4.367   2.291   0.375 -2.6330 -0.1453  1.0102
  392EMI    H0P 7445   4.468   2.160   0.426  1.3614  0.7579 -1.8172
  392EMI    H0Q 7446   4.296   2.127   0.399  0.5030 -0.6854 -0.6549
  392EMI    N02 7447   4.272   2.381   0.588  0.0821  0.3882 -0.6245
  392EMI    H0E 7448   4.449   2.289   0.615  0.6464 -3.0278  0.9666
  393EMI    C01 7449   4.240   1.456   3.475  0.3254  0.0242 -0.8295
  393EMI    C04 7450   4.361   1.294   3.544 -0.8216 -0.3097  0.0131
  393EMI    C03 7451   4.442   1.387   3.492 -0.1006 -0.5329  0.1029
  393EMI    H07 7452   4.156   1.521   3.470 -1.3696 -1.9466  0.2196
  393EMI    H09 7453   4.381   1.198   3.588 -1.7331 -0.0583  1.0021
  393EMI    H08 7454   4.548   1.384   3.487  0.3040  3.6831  2.0462
  393EMI    C05 7455   4.409   1.609   3.378  0.3161 -0.3315  0.1430
  393EMI    H0B 7456   4.337   1.689   3.375  0.0873 -0.2463  3.4653
  393EMI    H0C 7457   4.496   1.632   3.439  1.6595 -2.6806 -0.7395
  393EMI    H0D 7458   4.433   1.585   3.276  2.2262  1.1370  0.1882
  393EMI    N00 7459   4.362   1.489   3.445  0.0250 -0.2864 -0.1688
  393EMI    C06 7460   4.109   1.253   3.557  0.1135  0.6433 -0.2847
  393EMI    H0F 7461   4.093   1.187   3.474  1.0946  1.7843 -1.4183
  393EMI    C0N 7462   4.115   1.190   3.693  0.4877 -0.4535 -0.3527
  393EMI    H0O 7463   4.189   1.117   3.725 -0.5770 -0.9433  1.1000
  393EMI    H0P 7464   4.133   1.284   3.745  0.5007 -0.7336  0.1627
  393EMI    H0Q 7465   4.014   1.166   3.723  0.2807 -0.9104 -1.3991
  393EMI    N02 7466   4.231   1.332   3.524  0.6279  0.1437  0.0134
  393EMI    H0E 7467   4.038   1.334   3.556  1.7057  2.1958  2.0045
  394EMI    C01 7468   1.337   4.395   5.076 -0.3018 -0.2569  0.2276
  394EMI    C04 7469   1.237   4.211   5.124  0.3357  0.0242  0.3018
  394EMI    C03 7470   1.226   4.228   4.995 -0.1535 -0.0515  0.8086
  394EMI    H07 7471   1.401   4.480   5.088  0.1673 -0.9825  4.0889
  394EMI    H09 7472   1.196   4.134   5.187 -0.1405  0.4757  0.5502
  394EMI    H08 7473   1.176   4.170   4.920 -0.2690 -0.2519  1.0414
  394EMI    C05 7474   1.329   4.384   4.827  0.0824  0.1601  0.6072
  394EMI    H0B 7475   1.352   4.489   4.837 -2.6593  0.9750 -0.6445
  394EMI    H0C 7476   1.415   4.345   4.775 -0.5720 -0.8136  0.2487
  394EMI    H0D 7477   1.233   4.393   4.780  0.7147  2.1747 -0.4236
  394EMI    N00 7478   1.305   4.332   4.961 -0.5432 -0.9240 -0.4888
  394EMI    C06 7479   1.322   4.344   5.324 -0.1037  0.8638 -0.6233
  394EMI    H0F 7480   1.231   4.341   5.382  0.2794 -0.6182 -0.0400
  394EMI    C0N 7481   1.428   4.240   5.370  0.8047 -0.3168 -0.6128
  394EMI    H0O 7482   1.525   4.269   5.329  1.4479  2.1130  2.2855
  394EMI    H0P 7483   1.436   4.254   5.477 -1.3541  1.0378 -0.5721
  394EMI    H0Q 7484   1.401   4.136   5.354  0.3087 -0.2423 -0.2659
  394EMI    N02 7485   1.297   4.321   5.179 -0.7066  0.0588 -0.3763
  394EMI    H0E 7486   1.362   4.444   5.321 -0.1369  0.9930  1.6755
  395EMI    C01 7487   1.530   3.257   2.066  0.2644 -0.1367  0.1385
  395EMI    C04 7488   1.440   3.398   2.207  0.2773  0.1052  0.1901
  395EMI    C03 7489   1.549   3.452   2.146  0.2703 -0.1105 -0.4011
  395EMI    H07 7490   1.538   3.166   2.010  1.7354 -0.8312  1.4104
  395EMI    H09 7491   1.369   3.438   2.275  1.7676  1.0187  1.2763
  395EMI    H08 7492   1.593   3.546   2.169  1.5110 -1.2333  2.1876
  395EMI    C05 7493   1.718   3.397   1.985 -0.0965  0.1605  0.4254
  395EMI    H0B 7494   1.751   3.316   1.923 -2.2136 -0.4549  0.0490
  395EMI    H0C 7495   1.688   3.467   1.908  0.0735 -0.8355 -0.5577
  395EMI    H0D 7496   1.803   3.431   2.044  1.2795 -0.3250 -1.1990
  395EMI    N00 7497   1.608   3.362   2.066 -0.0183  0.1936 -0.5804
  395EMI    C06 7498   1.328   3.182   2.188 -0.5354 -0.4079  0.3212
  395EMI    H0F 7499   1.270   3.256   2.240  2.2180  2.3382 -0.2588
  395EMI    C0N 7500   1.245   3.130   2.075 -0.2540  0.3441  0.1023
  395EMI    H0O 7501   1.209   3.203   2.003 -1.9691 -1.3474 -0.8517
  395EMI    H0P 7502   1.299   3.044   2.037 -0.1745  0.4459 -0.0149
  395EMI    H0Q 7503   1.155   3.079   2.106  0.1033 -1.4149 -1.5481
  395EMI    N02 7504   1.439   3.270   2.162 -0.1005  0.4623 -0.3002
  395EMI    H0E 7505   1.353   3.105   2.261  0.4184 -1.3301 -0.9157
  396EMI    C01 7506   4.732   2.381   1.523 -0.2118  0.0787 -0.5946
  396EMI    C04 7507   4.575   2.390   1.372 -0.8448  0.1612  0.2669
  396EMI    C03 7508   4.521   2.397   1.495  0.2037 -0.3471  0.0648
  396EMI    H07 7509   4.834   2.385   1.556  0.4118  0.1979 -2.4395
  396EMI    H09 7510   4.529   2.384   1.276  0.0473  1.4409 -0.2641
  396EMI    H08 7511   4.422   2.419   1.528 -0.0055 -1.8490  0.5012
  396EMI    C05 7512   4.599   2.415   1.731  0.1002 -0.5758  0.3763
  396EMI    H0B 7513   4.528   2.490   1.762 -1.1940 -1.5549 -0.1210
  396EMI    H0C 7514   4.587   2.322   1.785  4.1465 -0.0469  2.5471
  396EMI    H0D 7515   4.695   2.438   1.775 -0.1430  0.3158  0.4669
  396EMI    N00 7516   4.618   2.393   1.588  0.5073  0.0265 -0.6806
  396EMI    C06 7517   4.817   2.381   1.288 -0.2049  0.3858  0.3689
  396EMI    H0F 7518   4.824   2.273   1.285 -0.2920  0.4050 -0.9159
  396EMI    C0N 7519   4.774   2.439   1.157 -0.1352 -0.3564 -0.1317
  396EMI    H0O 7520   4.867   2.438   1.102  0.3613 -1.4965  0.7033
  396EMI    H0P 7521   4.708   2.369   1.108  2.1994 -2.9061  0.1564
  396EMI    H0Q 7522   4.738   2.541   1.169  0.4497 -0.0779 -0.6651
  396EMI    N02 7523   4.711   2.392   1.395 -0.1939 -0.0389  0.2300
  396EMI    H0E 7524   4.903   2.426   1.335 -0.0228 -0.7857  1.2267
  397EMI    C01 7525   1.107   0.558   4.294  0.3493  0.3527 -0.2508
  397EMI    C04 7526   1.164   0.524   4.498 -0.7390 -0.1687  0.7092
  397EMI    C03 7527   1.060   0.608   4.501 -0.5314 -0.0203 -0.3710
  397EMI    H07 7528   1.106   0.559   4.187  0.9346  1.9485 -0.2697
  397EMI    H09 7529   1.227   0.490   4.577 -0.5817 -0.8626  0.2886
  397EMI    H08 7530   1.015   0.672   4.573 -0.5743 -0.9822  0.4836
  397EMI    C05 7531   0.929   0.723   4.312  0.5153  0.3200 -0.4661
  397EMI    H0B 7532   0.993   0.790   4.257  2.1377 -2.0830 -1.6473
  397EMI    H0C 7533   0.865   0.685   4.234  0.0943 -0.9305  0.4585
  397EMI    H0D 7534   0.860   0.766   4.383 -3.3758 -1.3630 -2.8808
  397EMI    N00 7535   1.029   0.627   4.371 -0.2369  0.4423  0.3891
  397EMI    C06 7536   1.302   0.407   4.325  0.1421  0.4838  0.6641
  397EMI    H0F 7537   1.392   0.465   4.314  0.9167 -0.7594  0.2668
  397EMI    C0N 7538   1.332   0.301   4.432 -0.2536 -0.3078  0.0415
  397EMI    H0O 7539   1.422   0.244   4.412  0.7216  0.0263  2.9444
  397EMI    H0P 7540   1.371   0.362   4.512 -2.6524  0.5317  0.6613
  397EMI    H0Q 7541   1.244   0.243   4.460 -1.1140 -0.1120 -2.1022
  397EMI    N02 7542   1.196   0.500   4.369  0.1823 -0.6682 -0.1286
  397EMI    H0E 7543   1.272   0.366   4.230 -0.5824 -0.1108  1.1374
  398EMI    C01 7544   3.724   5.053   1.434  0.4931  0.1662  0.2298
  398EMI    C04 7545   3.598   5.223   1.424  0.5277 -0.2098 -0.0821
  398EMI    C03 7546   3.692   5.242   1.335 -0.2898 -0.0061  0.6292
  398EMI    H07 7547   3.769   4.963   1.471 -2.1446 -1.7609 -0.9152
  398EMI    H09 7548   3.512   5.278   1.453  1.1674  1.1968 -0.7701
  398EMI    H08 7549   3.702   5.325   1.268  5.0222 -1.9153 -1.4442
  398EMI    C05 7550   3.889   5.099   1.247 -0.0908  0.7258  0.3187
  398EMI    H0B 7551   3.965   5.167   1.282  2.7561 -1.3656 -1.3550
  398EMI    H0C 7552   3.924   5.000   1.274  0.8867  1.1642  0.7107
  398EMI    H0D 7553   3.870   5.107   1.142 -1.4211 -1.8946  0.2792
  398EMI    N00 7554   3.772   5.127   1.335 -0.0040 -1.3185  0.4220
  398EMI    C06 7555   3.539   5.051   1.603  0.2160  0.0086 -0.2609
  398EMI    H0F 7556   3.545   5.130   1.676  1.0381  0.0578 -0.3737
  398EMI    C0N 7557   3.392   5.021   1.553  0.0352  0.0477  0.0579
  398EMI    H0O 7558   3.405   4.940   1.482 -1.6346 -1.3099  1.2278
  398EMI    H0P 7559   3.326   4.983   1.630 -0.2595  0.8951  0.2315
  398EMI    H0Q 7560   3.348   5.108   1.507 -1.0063 -0.2762  0.4285
  398EMI    N02 7561   3.624   5.110   1.495  0.4240  0.4479 -0.1586
  398EMI    H0E 7562   3.596   4.967   1.638  0.6041  0.7465  0.9283
  399EMI    C01 7563   0.161   1.831   0.453  0.4686  0.8262 -0.1492
  399EMI    C04 7564   0.368   1.877   0.489  1.0523  0.1612 -0.0654
  399EMI    C03 7565   0.359   1.833   0.361 -0.5185  0.0549 -0.3286
  399EMI    H07 7566   0.055   1.822   0.460  0.3721  0.6753 -1.5634
  399EMI    H09 7567   0.455   1.913   0.541  1.3030  0.8360 -0.9228
  399EMI    H08 7568   0.429   1.822   0.281  0.0498 -1.6864  0.3605
  399EMI    C05 7569   0.188   1.707   0.234 -0.5786 -0.0421  0.4273
  399EMI    H0B 7570   0.080   1.718   0.230 -0.4736  1.4438  1.0188
  399EMI    H0C 7571   0.217   1.737   0.134 -3.7625  0.2344 -0.5372
  399EMI    H0D 7572   0.205   1.603   0.255 -2.0943 -0.3286  0.3516
  399EMI    N00 7573   0.231   1.798   0.345  0.2434  0.1932  0.0266
  399EMI    C06 7574   0.197   1.957   0.673 -0.2655  0.5032  0.0932
  399EMI    H0F 7575   0.258   1.900   0.741  0.4586  0.6845 -0.3939
  399EMI    C0N 7576   0.229   2.105   0.689 -0.5123  0.4264  0.3008
  399EMI    H0O 7577   0.322   2.135   0.641 -1.3363  1.4266 -0.7215
  399EMI    H0P 7578   0.149   2.159   0.641 -0.9141  0.4263  0.9587
  399EMI    H0Q 7579   0.236   2.146   0.789 -4.1923  2.4146 -0.0995
  399EMI    N02 7580   0.240   1.892   0.544  0.2556  0.8280 -0.7566
  399EMI    H0E 7581   0.093   1.932   0.685 -0.4333 -0.0360 -2.0997
  400EMI    C01 7582   2.079   2.087   4.882  0.0900  0.4080 -0.3444
  400EMI    C04 7583   2.059   2.216   4.710 -0.0914  0.1076 -0.5120
  400EMI    C03 7584   1.979   2.109   4.689 -0.6973 -0.2709  0.7628
  400EMI    H07 7585   2.098   2.056   4.983  0.1394  0.4333 -0.3462
  400EMI    H09 7586   2.080   2.300   4.648  1.3603 -1.4477 -2.2578
  400EMI    H08 7587   1.929   2.080   4.599  2.1390 -0.9164 -0.6943
  400EMI    C05 7588   1.905   1.913   4.832  0.3815  0.3020 -0.7459
  400EMI    H0B 7589   1.801   1.927   4.806 -0.0405 -1.5535 -0.2004
  400EMI    H0C 7590   1.930   1.827   4.772 -1.8843 -0.7800 -0.2597
  400EMI    H0D 7591   1.910   1.881   4.935 -0.1351  2.5515  0.0434
  400EMI    N00 7592   1.992   2.032   4.801 -0.2413 -0.5508  0.5417
  400EMI    C06 7593   2.243   2.270   4.869 -0.4382 -0.2955  0.2173
  400EMI    H0F 7594   2.230   2.291   4.974  1.0288  1.0139  0.1705
  400EMI    C0N 7595   2.377   2.199   4.855  0.2026 -0.0215  0.1433
  400EMI    H0O 7596   2.368   2.093   4.876 -2.4328  0.0889 -0.1116
  400EMI    H0P 7597   2.407   2.202   4.751 -2.9574 -2.4156 -1.0267
  400EMI    H0Q 7598   2.448   2.240   4.926 -1.0748 -0.8363  1.9698
  400EMI    N02 7599   2.127   2.190   4.830 -0.3023 -0.1613  0.4794
  400EMI    H0E 7600   2.240   2.368   4.823 -0.4198  0.1280  1.1022
  401EMI    C01 7601   1.953   0.634   0.929 -0.3833 -0.4594  0.1731
  401EMI    C04 7602   2.069   0.675   1.111 -0.3735 -0.4784  0.1943
  401EMI    C03 7603   2.001   0.790   1.077  0.1725 -0.0626 -0.3714
  401EMI    H07 7604   1.902   0.582   0.851  1.8183 -0.6722 -1.1984
  401EMI    H09 7605   2.152   0.661   1.176  0.7745 -1.7029 -1.4588
  401EMI    H08 7606   2.007   0.884   1.128 -0.3144 -0.7592  1.0184
  401EMI    C05 7607   1.843   0.851   0.885 -0.3195 -0.1468 -0.5881
  401EMI    H0B 7608   1.789   0.912   0.956  0.8245  0.5968 -0.3281
  401EMI    H0C 7609   1.909   0.920   0.834 -0.2738 -0.9272 -1.6161
  401EMI    H0D 7610   1.788   0.812   0.801  1.5201  1.0723 -2.4599
  401EMI    N00 7611   1.935   0.761   0.957 -0.6198  0.0396  0.5835
  401EMI    C06 7612   2.111   0.451   1.005  0.0572  0.1459  0.0068
  401EMI    H0F 7613   2.214   0.453   1.035  0.3447  0.0515 -0.9509
  401EMI    C0N 7614   2.024   0.352   1.081 -0.8948  0.1658 -0.5429
  401EMI    H0O 7615   1.928   0.401   1.085 -1.4502 -0.9282 -0.0608
  401EMI    H0P 7616   2.019   0.259   1.025  0.6586 -0.8260  0.8451
  401EMI    H0Q 7617   2.069   0.337   1.179 -0.2711 -2.4567 -1.1403
  401EMI    N02 7618   2.047   0.587   1.008 -0.3253 -0.0386  0.0266
  401EMI    H0E 7619   2.118   0.409   0.906 -1.6900  0.6275 -0.3677
  402EMI    C01 7620   1.018   1.798   3.783  0.1928  0.0322 -0.1200
  402EMI    C04 7621   1.156   1.646   3.857  0.6493 -0.1180  0.1500
  402EMI    C03 7622   1.226   1.759   3.834 -0.0023  0.7380 -0.1236
  402EMI    H07 7623   0.927   1.832   3.738  0.0427 -1.0429 -0.6563
  402EMI    H09 7624   1.185   1.554   3.904 -1.2495 -0.5422  0.5565
  402EMI    H08 7625   1.331   1.770   3.849  0.3466 -1.0152 -0.8967
  402EMI    C05 7626   1.179   1.958   3.687 -1.0278 -0.4094 -0.1269
  402EMI    H0B 7627   1.282   1.944   3.658 -1.2135 -0.9565 -0.5339
  402EMI    H0C 7628   1.136   1.961   3.588  1.6394  0.7578 -1.3439
  402EMI    H0D 7629   1.169   2.050   3.743  1.0038  0.4352 -1.0250
  402EMI    N00 7630   1.136   1.848   3.777 -0.5216 -0.1255 -0.2707
  402EMI    C06 7631   0.920   1.571   3.808  0.3259  0.5015  0.3076
  402EMI    H0F 7632   0.847   1.618   3.743 -1.6814 -0.8751  1.4402
  402EMI    C0N 7633   0.974   1.448   3.742 -0.7876  0.1817  0.6011
  402EMI    H0O 7634   1.062   1.409   3.792 -0.7640  0.4520  0.7746
  402EMI    H0P 7635   0.898   1.372   3.735  0.3720 -0.8574 -4.1354
  402EMI    H0Q 7636   1.010   1.472   3.643  1.8709 -1.6092  1.0125
  402EMI    N02 7637   1.025   1.672   3.825  0.0465  0.6291  0.2909
  402EMI    H0E 7638   0.876   1.546   3.904 -2.3578 -1.1429 -1.2138
  403EMI    C01 7639   1.108   3.697   1.207  0.2829  0.1295 -0.1425
  403EMI    C04 7640   1.261   3.655   1.358 -0.5151  0.7561  0.2189
  403EMI    C03 7641   1.289   3.771   1.302 -0.3682 -0.4019  0.0425
  403EMI    H07 7642   1.020   3.691   1.147  0.5198  3.9642 -1.1306
  403EMI    H09 7643   1.306   3.595   1.434  0.5846  0.1703 -0.8733
  403EMI    H08 7644   1.366   3.843   1.319 -0.8401 -0.1406  1.2009
  403EMI    C05 7645   1.158   3.937   1.147 -0.2078  0.4264 -0.3100
  403EMI    H0B 7646   1.158   4.014   1.223  0.9153  0.5238 -0.3920
  403EMI    H0C 7647   1.244   3.968   1.089  0.2117 -0.4096 -0.1448
  403EMI    H0D 7648   1.060   3.934   1.102 -1.1536  2.7137  1.3871
  403EMI    N00 7649   1.180   3.806   1.219 -0.2356  0.3362 -0.4017
  403EMI    C06 7650   1.089   3.467   1.301 -0.0888  0.7911 -0.6581
  403EMI    H0F 7651   0.991   3.463   1.256 -1.4276 -1.3104  2.1225
  403EMI    C0N 7652   1.176   3.363   1.246 -0.5659  0.0385  0.7754
  403EMI    H0O 7653   1.264   3.348   1.307 -0.8817  0.9495  1.4758
  403EMI    H0P 7654   1.129   3.265   1.241  1.0382 -0.7092 -2.5268
  403EMI    H0Q 7655   1.184   3.386   1.140 -0.0640 -0.6397  0.6574
  403EMI    N02 7656   1.142   3.608   1.292  0.2687  0.4304  0.0770
  403EMI    H0E 7657   1.064   3.456   1.406  0.6181 -1.6613 -0.6979
  404EMI    C01 7658   4.347   2.663   3.134  0.3629 -0.5096  0.1367
  404EMI    C04 7659   4.290   2.468   3.049 -0.0635 -0.1513 -0.2146
  404EMI    C03 7660   4.388   2.521   2.977 -0.0314 -0.3615  0.3870
  404EMI    H07 7661   4.329   2.751   3.193 -2.1060 -0.0737 -1.1347
  404EMI    H09 7662   4.230   2.380   3.044  0.1142 -0.2421 -0.8573
  404EMI    H08 7663   4.419   2.485   2.881 -2.3835 -0.9211 -0.2238
  404EMI    C05 7664   4.517   2.752   2.973  0.0480  0.0616  0.4188
  404EMI    H0B 7665   4.616   2.715   2.950  0.1356  1.4545 -1.7195
  404EMI    H0C 7666   4.466   2.775   2.881 -0.1915 -3.7537 -0.5885
  404EMI    H0D 7667   4.514   2.843   3.030 -0.4017 -0.1270  0.7016
  404EMI    N00 7668   4.427   2.644   3.031  0.4198 -0.8921  0.0285
  404EMI    C06 7669   4.142   2.569   3.229  0.8527  0.0958  0.4168
  404EMI    H0F 7670   4.094   2.664   3.214  0.5477  0.0206  0.9056
  404EMI    C0N 7671   4.037   2.473   3.185  0.3681  0.2469 -0.1749
  404EMI    H0O 7672   4.006   2.496   3.083  1.7918  1.1379 -0.4392
  404EMI    H0P 7673   4.065   2.369   3.196 -0.6577  0.1597  2.0038
  404EMI    H0Q 7674   3.960   2.496   3.258  0.1465  1.0269 -0.6316
  404EMI    N02 7675   4.261   2.563   3.148 -0.1812 -0.4539 -0.1338
  404EMI    H0E 7676   4.171   2.538   3.329  2.0005 -0.2811 -0.0201
  405EMI    C01 7677   1.916   0.564   2.295  0.1655 -0.1661 -0.3147
  405EMI    C04 7678   2.051   0.395   2.267  0.9194 -0.1941  0.1806
  405EMI    C03 7679   1.927   0.353   2.235 -0.4045 -0.2381  0.4150
  405EMI    H07 7680   1.886   0.666   2.306  1.9929  0.3699  0.1719
  405EMI    H09 7681   2.148   0.353   2.254  0.6622 -0.6338 -0.3615
  405EMI    H08 7682   1.897   0.262   2.187  2.3652 -0.9592 -0.1022
  405EMI    C05 7683   1.703   0.471   2.224 -0.1352 -0.4449 -0.5464
  405EMI    H0B 7684   1.661   0.383   2.270 -2.4602  0.1657 -1.3671
  405EMI    H0C 7685   1.660   0.564   2.260  0.5384 -0.3302 -0.0249
  405EMI    H0D 7686   1.690   0.478   2.117 -0.8210 -0.3860 -0.4660
  405EMI    N00 7687   1.845   0.463   2.257 -0.0612  0.4297 -0.1546
  405EMI    C06 7688   2.162   0.615   2.329  0.0653 -0.3644 -1.0443
  405EMI    H0F 7689   2.216   0.600   2.421 -0.3047 -0.3765 -0.8241
  405EMI    C0N 7690   2.251   0.616   2.206  0.4178  0.6095 -0.7068
  405EMI    H0O 7691   2.274   0.513   2.181 -0.5802  0.1283  0.2777
  405EMI    H0P 7692   2.206   0.652   2.115  0.6711 -0.0295 -1.0881
  405EMI    H0Q 7693   2.347   0.661   2.230  1.0306 -1.2699  0.6153
  405EMI    N02 7694   2.042   0.527   2.306 -0.3471 -0.0541  0.2932
  405EMI    H0E 7695   2.123   0.714   2.351 -0.3723  0.0278 -3.2956
  406EMI    C01 7696   5.106   4.383   2.202 -0.8147  0.1850  0.2107
  406EMI    C04 7697   5.200   4.396   2.006  0.0909 -0.5235  0.2683
  406EMI    C03 7698   5.141   4.277   2.018  0.4250  0.1257 -0.0326
  406EMI    H07 7699   5.072   4.404   2.301  3.6254 -1.4394  2.3865
  406EMI    H09 7700   5.250   4.438   1.922 -1.4766 -2.0984 -1.5374
  406EMI    H08 7701   5.132   4.194   1.952 -0.6310  0.9214 -0.9259
  406EMI    C05 7702   5.019   4.149   2.200  0.7267 -0.5832 -0.0798
  406EMI    H0B 7703   5.078   4.088   2.267 -0.2037  0.5516  1.8669
  406EMI    H0C 7704   4.936   4.184   2.259  0.0634  0.3640 -1.5266
  406EMI    H0D 7705   4.995   4.081   2.120  1.2238 -0.0908 -0.6627
  406EMI    N00 7706   5.091   4.265   2.146  0.4198  0.2506 -0.2856
  406EMI    C06 7707   5.188   4.606   2.133  0.3932  0.2269  0.2627
  406EMI    H0F 7708   5.290   4.643   2.133  0.3485  0.3552 -0.3980
  406EMI    C0N 7709   5.119   4.673   2.019  0.4294 -0.2663  0.6894
  406EMI    H0O 7710   5.105   4.778   2.045  1.2970 -0.9088  4.4078
  406EMI    H0P 7711   5.172   4.672   1.925 -0.4945 -1.5054  0.1607
  406EMI    H0Q 7712   5.023   4.628   1.997  0.2563  0.7184 -0.6917
  406EMI    N02 7713   5.181   4.463   2.126 -0.2023 -0.4328  0.1790
  406EMI    H0E 7714   5.134   4.622   2.225 -2.5164  0.4022 -1.3729
  407EMI    C01 7715   4.485   5.125   3.294  0.2659  0.0031 -0.8828
  407EMI    C04 7716   4.379   4.944   3.227  0.0923  0.6851  0.3269
  407EMI    C03 7717   4.336   4.971   3.352  0.0816 -0.8413 -0.0951
  407EMI    H07 7718   4.546   5.213   3.298  0.9935 -0.2894 -3.7318
  407EMI    H09 7719   4.355   4.863   3.161 -0.3778  1.8671 -1.0301
  407EMI    H08 7720   4.279   4.922   3.428  1.2404  1.0654  2.1452
  407EMI    C05 7721   4.388   5.151   3.521 -0.1342  0.5564 -0.5775
  407EMI    H0B 7722   4.454   5.116   3.598  1.3197  1.7484 -1.2382
  407EMI    H0C 7723   4.408   5.256   3.503  3.4544  0.1762  0.5096
  407EMI    H0D 7724   4.284   5.153   3.552  0.3908  1.8549  1.2362
  407EMI    N00 7725   4.410   5.082   3.393 -1.3199  0.0439  0.3872
  407EMI    C06 7726   4.519   5.069   3.049 -0.0888 -0.3699 -0.3103
  407EMI    H0F 7727   4.486   5.168   3.022 -0.6149 -0.2767  0.6290
  407EMI    C0N 7728   4.676   5.050   3.041 -0.4108  0.4818 -0.5263
  407EMI    H0O 7729   4.729   5.071   3.133 -0.4547 -0.5416 -0.2553
  407EMI    H0P 7730   4.693   4.946   3.015  1.8585  0.8358 -0.6972
  407EMI    H0Q 7731   4.724   5.122   2.975  1.5671  0.5646  0.9053
  407EMI    N02 7732   4.466   5.046   3.188 -0.1867 -0.4234  0.1035
  407EMI    H0E 7733   4.467   4.996   2.989  0.8724  0.4399 -2.2027
  408EMI    C01 7734   2.315   3.099   1.029 -0.2826 -0.7569 -0.5310
  408EMI    C04 7735   2.503   3.007   1.091 -0.0355 -0.4470  0.5749
  408EMI    C03 7736   2.475   3.111   1.165  1.0474 -0.5711 -0.3949
  408EMI    H07 7737   2.226   3.107   0.971 -0.9787 -0.6851  0.5155
  408EMI    H09 7738   2.575   2.929   1.101  0.4262 -0.2867 -1.1163
  408EMI    H08 7739   2.527   3.142   1.253 -0.1152  0.0852  0.0826
  408EMI    C05 7740   2.290   3.289   1.185  0.2546  0.3464 -0.1724
  408EMI    H0B 7741   2.278   3.272   1.291 -0.6162  1.0554 -0.1406
  408EMI    H0C 7742   2.345   3.381   1.170 -0.4661  0.7972 -0.1004
  408EMI    H0D 7743   2.194   3.301   1.135 -1.0628 -3.1648  1.1651
  408EMI    N00 7744   2.358   3.170   1.128 -0.0132 -0.1776  0.5413
  408EMI    C06 7745   2.385   2.888   0.905  0.0378  0.0604  0.0999
  408EMI    H0F 7746   2.458   2.897   0.826 -0.1946 -1.2197 -0.2900
  408EMI    C0N 7747   2.387   2.753   0.968 -0.1374 -0.3555  0.2452
  408EMI    H0O 7748   2.303   2.744   1.036 -2.4199  1.3264 -2.1291
  408EMI    H0P 7749   2.385   2.681   0.887  0.5880  1.9501 -1.9381
  408EMI    H0Q 7750   2.479   2.735   1.022 -0.3812 -0.7591  0.5347
  408EMI    N02 7751   2.399   2.999   0.997 -0.0504  0.0381 -0.8997
  408EMI    H0E 7752   2.291   2.893   0.852  0.0374 -2.3728 -0.2283
  409EMI    C01 7753   1.647   3.521   4.512  0.5363  0.2954  0.2069
  409EMI    C04 7754   1.832   3.504   4.633 -0.5597 -0.8080 -0.0453
  409EMI    C03 7755   1.772   3.384   4.633 -0.3472 -0.3330 -0.5268
  409EMI    H07 7756   1.575   3.560   4.442  1.9178  1.0212 -0.8481
  409EMI    H09 7757   1.922   3.538   4.678 -0.0774  0.0738 -1.5994
  409EMI    H08 7758   1.793   3.291   4.682  1.6467  0.7754  0.8603
  409EMI    C05 7759   1.576   3.280   4.518 -0.0365 -0.0316  0.6815
  409EMI    H0B 7760   1.486   3.312   4.468 -0.5802 -1.8176  0.4536
  409EMI    H0C 7761   1.622   3.231   4.433 -1.5064 -0.0219 -0.1577
  409EMI    H0D 7762   1.562   3.209   4.597 -1.6046  0.7401  1.1283
  409EMI    N00 7763   1.658   3.393   4.558 -0.4526 -0.2573  0.2986
  409EMI    C06 7764   1.769   3.736   4.561  0.5646  0.3612 -0.0353
  409EMI    H0F 7765   1.849   3.765   4.494  2.0551 -0.9009  1.1161
  409EMI    C0N 7766   1.653   3.811   4.507 -0.3125 -0.7026  0.1495
  409EMI    H0O 7767   1.676   3.917   4.506 -1.3748 -0.3913  2.2456
  409EMI    H0P 7768   1.636   3.778   4.406 -1.4087  3.2128 -1.1354
  409EMI    H0Q 7769   1.574   3.801   4.581 -0.5688 -1.0716 -0.1715
  409EMI    N02 7770   1.748   3.588   4.566 -0.4484  0.5086  0.1826
  409EMI    H0E 7771   1.790   3.775   4.660 -1.3233  2.9928 -0.5359
  410EMI    C01 7772   1.285   2.886   1.498 -0.1816  0.2686 -0.9630
  410EMI    C04 7773   1.336   2.699   1.421 -0.8790 -0.3752 -0.4250
  410EMI    C03 7774   1.424   2.728   1.514 -0.0505  1.4161  0.7807
  410EMI    H07 7775   1.238   2.977   1.528 -0.4883  0.3227 -1.5855
  410EMI    H09 7776   1.331   2.605   1.369  0.7830 -1.6323  1.5234
  410EMI    H08 7777   1.505   2.672   1.556 -0.5552  1.5812  2.0187
  410EMI    C05 7778   1.452   2.919   1.680 -0.5143 -0.0419  0.5485
  410EMI    H0B 7779   1.510   2.999   1.635 -1.4437 -0.0916 -0.7875
  410EMI    H0C 7780   1.377   2.964   1.744 -1.0776 -0.8645  0.4829
  410EMI    H0D 7781   1.512   2.848   1.735 -1.0495 -1.3437 -0.5114
  410EMI    N00 7782   1.387   2.848   1.571  0.4113  0.4957  0.1621
  410EMI    C06 7783   1.139   2.827   1.317  0.0165  0.4188  0.4019
  410EMI    H0F 7784   1.064   2.867   1.383  1.0749  2.7493  0.2872
  410EMI    C0N 7785   1.162   2.922   1.202  0.0258 -0.0817 -0.2503
  410EMI    H0O 7786   1.232   2.898   1.123  1.3453 -0.4795  0.9923
  410EMI    H0P 7787   1.067   2.922   1.149  1.0032  2.0509 -2.1346
  410EMI    H0Q 7788   1.199   3.014   1.245 -0.9640 -0.1022  0.6763
  410EMI    N02 7789   1.255   2.809   1.402  0.7005  0.5627  0.2637
  410EMI    H0E 7790   1.126   2.726   1.281  1.4538  0.4652 -0.3192
  411EMI    C01 7791   3.395   1.862   3.238  0.1523 -0.5473  0.0873
  411EMI    C04 7792   3.298   1.806   3.052  0.1782  0.3192  0.3614
  411EMI    C03 7793   3.263   1.716   3.144  0.1425  0.3913  0.0732
  411EMI    H07 7794   3.449   1.927   3.303  1.3515  1.5638 -2.7724
  411EMI    H09 7795   3.283   1.816   2.947 -0.8242  0.0467  0.4734
  411EMI    H08 7796   3.214   1.623   3.130 -0.7844  0.6501  1.4225
  411EMI    C05 7797   3.338   1.664   3.379 -0.4307  0.2551  0.0350
  411EMI    H0B 7798   3.362   1.565   3.343  0.5194  0.2532  0.6640
  411EMI    H0C 7799   3.419   1.690   3.445 -0.4091 -1.7487  0.8738
  411EMI    H0D 7800   3.238   1.662   3.421 -0.5340  0.0701 -0.2137
  411EMI    N00 7801   3.327   1.751   3.260 -0.3557  0.5761 -0.5956
  411EMI    C06 7802   3.412   2.025   3.052  0.2540 -0.2201 -0.6820
  411EMI    H0F 7803   3.448   2.084   3.136 -0.5434  1.3435 -1.4085
  411EMI    C0N 7804   3.519   2.006   2.950 -0.0307  0.4454 -0.1432
  411EMI    H0O 7805   3.614   1.984   2.998 -0.3396 -2.1013 -0.5450
  411EMI    H0P 7806   3.495   1.922   2.886  0.6734  0.8843 -1.0000
  411EMI    H0Q 7807   3.518   2.096   2.890 -1.3762  0.4926 -0.0656
  411EMI    N02 7808   3.375   1.897   3.112  0.2179  0.6580 -0.3461
  411EMI    H0E 7809   3.329   2.081   3.012  1.5307  2.2654 -0.1188
  412EMI    C01 7810   1.984   3.061   2.064 -0.0550 -0.5961 -0.2336
  412EMI    C04 7811   2.105   3.221   1.999 -0.0633  0.5644 -0.4255
  412EMI    C03 7812   2.031   3.180   1.894 -0.1830  0.5289 -0.1609
  412EMI    H07 7813   1.941   2.987   2.128  0.6134 -1.2563 -0.5355
  412EMI    H09 7814   2.181   3.295   2.004  1.9442 -1.4048 -0.3496
  412EMI    H08 7815   2.047   3.219   1.796  0.2220  3.4446  0.9465
  412EMI    C05 7816   1.866   2.996   1.840 -0.3692  0.5252  0.2796
  412EMI    H0B 7817   1.941   2.936   1.791  0.3363  1.8129 -0.2745
  412EMI    H0C 7818   1.787   2.947   1.897 -0.9756 -0.5698 -1.4183
  412EMI    H0D 7819   1.812   3.060   1.772 -2.2114 -0.7729  0.4516
  412EMI    N00 7820   1.953   3.081   1.938 -0.0276  0.3825 -0.0873
  412EMI    C06 7821   2.157   3.129   2.234 -0.3120 -0.8664  0.0036
  412EMI    H0F 7822   2.093   3.067   2.295 -1.1535  1.3733  1.5371
  412EMI    C0N 7823   2.304   3.074   2.239  0.1381  0.0133  0.6288
  412EMI    H0O 7824   2.346   3.091   2.337  3.1445 -2.0889 -0.1533
  412EMI    H0P 7825   2.298   2.966   2.227 -1.8187  0.2402 -0.8397
  412EMI    H0Q 7826   2.365   3.125   2.165  0.4852  0.4931  1.2391
  412EMI    N02 7827   2.086   3.130   2.104  0.2444 -1.2268  0.0605
  412EMI    H0E 7828   2.148   3.229   2.274 -0.0213 -1.1191  0.7311
  413EMI    C01 7829   0.736   3.760   2.156  0.1520 -0.3653 -0.0635
  413EMI    C04 7830   0.658   3.577   2.068  0.2643  0.1129  0.1977
  413EMI    C03 7831   0.682   3.557   2.197 -0.5636 -0.7015 -0.4305
  413EMI    H07 7832   0.775   3.859   2.162  1.4916 -0.7029 -2.2374
  413EMI    H09 7833   0.613   3.510   1.998 -1.4943 -0.4239  1.7724
  413EMI    H08 7834   0.663   3.465   2.247 -0.6694 -0.9174 -0.8561
  413EMI    C05 7835   0.762   3.690   2.399  0.3761  0.3988  0.5057
  413EMI    H0B 7836   0.694   3.766   2.435  0.2641 -0.4014  2.0560
  413EMI    H0C 7837   0.739   3.597   2.449 -0.0735 -1.3650 -2.7071
  413EMI    H0D 7838   0.862   3.724   2.418  0.5605  0.6945 -0.8438
  413EMI    N00 7839   0.728   3.676   2.257 -0.6694  0.4594 -0.3794
  413EMI    C06 7840   0.704   3.769   1.905  0.3234  0.0174 -0.0977
  413EMI    H0F 7841   0.746   3.691   1.845 -0.5088 -0.0683 -0.5804
  413EMI    C0N 7842   0.566   3.800   1.864  0.2653 -0.0599  0.1296
  413EMI    H0O 7843   0.499   3.716   1.876 -0.9558  0.2383 -3.5817
  413EMI    H0P 7844   0.524   3.881   1.923 -1.2847  0.1578 -1.2107
  413EMI    H0Q 7845   0.565   3.822   1.758  1.8887  1.6434  0.4073
  413EMI    N02 7846   0.704   3.700   2.042 -0.1134 -0.3584  0.8078
  413EMI    H0E 7847   0.772   3.853   1.916 -0.4860  0.4683  2.0155
  414EMI    C01 7848   3.549   4.025   1.965 -0.3558 -0.1718  0.6603
  414EMI    C04 7849   3.473   4.214   1.915  0.3376  0.2871  0.0906
  414EMI    C03 7850   3.597   4.219   1.880 -0.4341  0.1812  0.1203
  414EMI    H07 7851   3.553   3.933   2.019 -1.7367 -0.3619  0.4538
  414EMI    H09 7852   3.399   4.289   1.894  1.2708  0.9880 -0.7625
  414EMI    H08 7853   3.650   4.292   1.823 -1.5381  1.8325  1.1035
  414EMI    C05 7854   3.794   4.042   1.903  0.0113 -0.3328 -0.1772
  414EMI    H0B 7855   3.822   4.059   1.800 -1.1576 -1.6454 -0.7527
  414EMI    H0C 7856   3.852   4.115   1.957 -1.0436  0.4315 -0.0388
  414EMI    H0D 7857   3.809   3.942   1.939  0.2199 -1.6387 -3.5097
  414EMI    N00 7858   3.650   4.092   1.908  0.1279  0.8046 -0.3321
  414EMI    C06 7859   3.303   4.075   2.021 -0.5786 -0.1327 -0.1087
  414EMI    H0F 7860   3.238   4.129   1.954  0.4610 -1.2480 -2.1077
  414EMI    C0N 7861   3.247   3.935   1.995  0.1981  0.2499  0.2808
  414EMI    H0O 7862   3.158   3.940   2.056  0.3126 -0.0457  0.4751
  414EMI    H0P 7863   3.217   3.908   1.895  0.5066 -0.3281  0.3379
  414EMI    H0Q 7864   3.297   3.848   2.036 -2.3639 -1.4689 -0.0760
  414EMI    N02 7865   3.439   4.097   1.967 -0.4052  0.3944 -0.6891
  414EMI    H0E 7866   3.291   4.114   2.121  0.4253  1.1265 -0.4461
  415EMI    C01 7867   1.512   3.718   0.920 -0.4516  0.4614  0.4891
  415EMI    C04 7868   1.652   3.695   1.089 -0.0425  0.2332  0.8108
  415EMI    C03 7869   1.649   3.824   1.057  0.0078 -0.0852  0.2451
  415EMI    H07 7870   1.437   3.704   0.846 -3.0988  4.5451  2.0437
  415EMI    H09 7871   1.715   3.647   1.160 -1.9891 -0.1867  2.3323
  415EMI    H08 7872   1.709   3.903   1.096 -1.1742  0.3601  1.2413
  415EMI    C05 7873   1.502   3.968   0.907  0.4574 -0.3146 -0.0137
  415EMI    H0B 7874   1.512   4.042   0.986  1.7833 -1.5116  1.0016
  415EMI    H0C 7875   1.567   3.995   0.825  2.5266 -1.6823  1.0837
  415EMI    H0D 7876   1.402   3.960   0.870 -0.0224 -1.0279  1.3428
  415EMI    N00 7877   1.558   3.840   0.956  0.3897 -0.0827 -0.3136
  415EMI    C06 7878   1.521   3.481   1.031 -0.7162 -0.3031 -0.1028
  415EMI    H0F 7879   1.585   3.415   0.976  1.0435  1.2941 -0.0691
  415EMI    C0N 7880   1.532   3.444   1.176  0.0840  0.5737 -0.3655
  415EMI    H0O 7881   1.536   3.339   1.202  0.9916  1.0809  1.7915
  415EMI    H0P 7882   1.628   3.468   1.220  0.5284 -2.0370  0.2386
  415EMI    H0Q 7883   1.462   3.494   1.242  1.5296  1.6077  0.4380
  415EMI    N02 7884   1.565   3.624   1.004  0.4093  0.0707  0.0008
  415EMI    H0E 7885   1.416   3.473   1.006 -1.3115  1.7419  1.4363
  416EMI    C01 7886   1.645   2.138   3.225  0.6578  0.8968  0.0210
  416EMI    C04 7887   1.645   2.028   3.032  0.7620 -0.1914  0.6469
  416EMI    C03 7888   1.745   1.986   3.108  0.1129  0.4195 -0.3816
  416EMI    H07 7889   1.619   2.214   3.296  0.5885  0.9938 -0.1078
  416EMI    H09 7890   1.604   1.999   2.937  1.9253 -1.1508  0.4188
  416EMI    H08 7891   1.821   1.913   3.091  0.4779  1.0337 -1.4798
  416EMI    C05 7892   1.847   2.025   3.334  0.4500  0.2144  0.2332
  416EMI    H0B 7893   1.944   2.037   3.289 -0.4556 -0.8877 -2.1928
  416EMI    H0C 7894   1.812   2.086   3.416  0.4448  0.6445 -0.0849
  416EMI    H0D 7895   1.831   1.923   3.366 -1.4825 -0.3067 -2.0617
  416EMI    N00 7896   1.742   2.050   3.230 -0.1248  0.1369  0.0778
  416EMI    C06 7897   1.481   2.211   3.048  0.3652  0.1557 -0.0055
  416EMI    H0F 7898   1.384   2.163   3.059  1.2231 -1.4530  1.0412
  416EMI    C0N 7899   1.489   2.349   3.103  0.2617 -0.4581  0.3150
  416EMI    H0O 7900   1.446   2.341   3.202 -1.9947 -1.1768 -0.6565
  416EMI    H0P 7901   1.592   2.383   3.113  1.1081 -1.9961 -2.1609
  416EMI    H0Q 7902   1.439   2.420   3.038  0.1864 -0.6913  0.1152
  416EMI    N02 7903   1.583   2.125   3.110 -0.0530  0.1837  0.2558
  416EMI    H0E 7904   1.498   2.220   2.942  1.9792  0.8037  0.2789
  417EMI    C01 7905   2.804   1.325   3.462  0.1541 -0.2001 -0.0671
  417EMI    C04 7906   2.976   1.198   3.457  0.0536 -0.3878  0.5020
  417EMI    C03 7907   3.018   1.318   3.413 -1.2064  0.1305  0.3095
  417EMI    H07 7908   2.704   1.362   3.466  0.0768 -0.5111  1.7014
  417EMI    H09 7909   3.030   1.107   3.475 -0.2744 -0.6138  0.3555
  417EMI    H08 7910   3.119   1.348   3.393 -0.2573 -2.2430  1.2028
  417EMI    C05 7911   2.895   1.536   3.371  0.3728  1.2702 -0.4162
  417EMI    H0B 7912   2.796   1.577   3.383 -0.0058 -0.1256  1.7874
  417EMI    H0C 7913   2.968   1.597   3.422  1.3395 -0.1600 -0.0326
  417EMI    H0D 7914   2.909   1.536   3.264  0.4001  2.1650 -0.4166
  417EMI    N00 7915   2.903   1.394   3.414  0.2794 -0.1098 -0.1812
  417EMI    C06 7916   2.747   1.094   3.506  0.0031  0.2628  0.4785
  417EMI    H0F 7917   2.650   1.140   3.510  0.0896  0.9893 -2.9740
  417EMI    C0N 7918   2.753   1.001   3.386 -0.0781 -0.4981 -0.0984
  417EMI    H0O 7919   2.845   0.943   3.392  0.2159 -0.0087  0.2199
  417EMI    H0P 7920   2.668   0.934   3.393 -0.9732  0.6056 -0.2369
  417EMI    H0Q 7921   2.746   1.068   3.302 -0.1408 -1.1032 -0.5821
  417EMI    N02 7922   2.842   1.201   3.480 -0.0002 -0.2536 -0.3188
  417EMI    H0E 7923   2.769   1.055   3.605 -0.0341  0.7994  0.7040
  418EMI    C01 7924   5.072   0.965   4.288  0.0231 -0.2262  0.4952
  418EMI    C04 7925   4.920   0.832   4.223 -0.5505  0.6319 -1.0815
  418EMI    C03 7926   5.014   0.844   4.126  0.0872  0.2989  0.1647
  418EMI    H07 7927   5.115   1.051   4.334  0.2676  0.7301 -1.4229
  418EMI    H09 7928   4.828   0.778   4.226  1.0925 -2.3736  1.7414
  418EMI    H08 7929   5.018   0.806   4.026  0.1109 -0.2521  0.3692
  418EMI    C05 7930   5.236   0.961   4.105 -0.7623  0.0476 -0.1692
  418EMI    H0B 7931   5.268   1.064   4.122 -1.5562  0.1477  0.8117
  418EMI    H0C 7932   5.323   0.899   4.123  0.3781  1.1503 -1.5474
  418EMI    H0D 7933   5.213   0.960   4.000 -1.7796 -0.5981  0.0478
  418EMI    N00 7934   5.117   0.919   4.174 -0.0643 -0.2613  0.1885
  418EMI    C06 7935   4.893   0.936   4.461 -0.2441  0.4388 -1.1221
  418EMI    H0F 7936   4.839   0.849   4.494 -0.7408  1.5471  1.1294
  418EMI    C0N 7937   4.988   0.981   4.573  0.3897 -0.2282 -0.5867
  418EMI    H0O 7938   5.045   1.070   4.546 -1.4063  1.4219  0.7158
  418EMI    H0P 7939   4.930   1.004   4.662  0.1480 -1.7421 -0.3377
  418EMI    H0Q 7940   5.055   0.900   4.600 -0.4963 -0.3007  1.6478
  418EMI    N02 7941   4.961   0.913   4.325  0.4249  0.3952  0.1747
  418EMI    H0E 7942   4.832   1.024   4.446  0.4056  0.9411 -0.8655
  419EMI    C01 7943   3.838   2.115   3.365  0.2086  0.7138  0.1813
  419EMI    C04 7944   3.725   1.950   3.450 -0.1217 -1.0788 -0.0404
  419EMI    C03 7945   3.688   2.064   3.510  0.5715 -0.2640 -0.0095
  419EMI    H07 7946   3.901   2.170   3.299 -0.6027  0.2700 -0.9998
  419EMI    H09 7947   3.693   1.851   3.475 -1.7458 -0.1074  1.9854
  419EMI    H08 7948   3.628   2.078   3.597  1.0628 -2.2134  0.7140
  419EMI    C05 7949   3.720   2.314   3.461  0.0270 -0.2875  0.0012
  419EMI    H0B 7950   3.716   2.346   3.564  0.0390  2.5329 -0.7905
  419EMI    H0C 7951   3.803   2.371   3.424 -0.2507  0.0822 -0.0574
  419EMI    H0D 7952   3.646   2.363   3.400 -0.3436  1.1301  1.5164
  419EMI    N00 7953   3.752   2.170   3.450 -0.1008 -0.1613  0.0485
  419EMI    C06 7954   3.932   1.887   3.315 -0.2909  0.2189 -0.2628
  419EMI    H0F 7955   3.972   1.939   3.229 -1.3614 -1.2106 -1.6658
  419EMI    C0N 7956   4.034   1.856   3.422 -0.3102  0.3929 -0.6609
  419EMI    H0O 7957   3.981   1.837   3.514  1.2361  0.4966  0.2814
  419EMI    H0P 7958   4.109   1.779   3.409  0.0069  0.1863  1.8953
  419EMI    H0Q 7959   4.091   1.947   3.436  0.9747 -0.5184  0.2587
  419EMI    N02 7960   3.827   1.977   3.368 -0.1122  0.3157  0.2612
  419EMI    H0E 7961   3.885   1.800   3.273 -0.2518 -0.0969  0.3301
  420EMI    C01 7962   0.819   1.309   3.075 -0.2309 -0.3705 -0.1143
  420EMI    C04 7963   0.920   1.293   2.878  0.5222  0.3965 -0.2564
  420EMI    C03 7964   0.918   1.424   2.913 -0.0118 -0.3990  0.4208
  420EMI    H07 7965   0.764   1.281   3.162  0.9555 -0.2325  0.6954
  420EMI    H09 7966   0.968   1.236   2.801 -0.3816 -2.0146  0.8563
  420EMI    H08 7967   0.969   1.499   2.858  1.9973 -0.6957  1.7901
  420EMI    C05 7968   0.835   1.560   3.116  0.4086 -0.0101  0.1183
  420EMI    H0B 7969   0.730   1.565   3.142  0.2632 -0.0022 -0.4664
  420EMI    H0C 7970   0.896   1.557   3.205  0.9749 -0.7674 -0.2840
  420EMI    H0D 7971   0.859   1.653   3.067  0.3234 -0.8945 -1.6633
  420EMI    N00 7972   0.848   1.435   3.035 -0.4080 -0.1420 -0.1245
  420EMI    C06 7973   0.839   1.082   2.977  0.3937  0.5392  0.2048
  420EMI    H0F 7974   0.797   1.069   3.075 -0.1044  1.2422  0.0923
  420EMI    C0N 7975   0.748   1.025   2.875 -0.1034  0.5149  0.1378
  420EMI    H0O 7976   0.737   0.920   2.901 -0.0656  0.9636  2.1325
  420EMI    H0P 7977   0.656   1.082   2.870  0.2255  1.1620  1.1791
  420EMI    H0Q 7978   0.789   1.021   2.775 -0.1068  4.1494 -0.1357
  420EMI    N02 7979   0.856   1.225   2.977  0.4441 -0.0476 -0.3224
  420EMI    H0E 7980   0.940   1.043   2.984  0.7796  1.6611  1.4545
  421EMI    C01 7981   2.816   3.438   2.510  0.7099  0.8998 -0.8360
  421EMI    C04 7982   2.693   3.607   2.576  0.0952  0.7017 -0.0678
  421EMI    C03 7983   2.777   3.573   2.677 -0.0598  0.4937 -0.5443
  421EMI    H07 7984   2.856   3.359   2.450 -3.0814 -1.0120 -1.1606
  421EMI    H09 7985   2.612   3.675   2.593 -2.3082 -2.7423  4.2722
  421EMI    H08 7986   2.768   3.595   2.781  2.3443 -1.2461  0.1195
  421EMI    C05 7987   2.964   3.396   2.709  0.3333 -0.8972 -0.7361
  421EMI    H0B 7988   2.903   3.327   2.766  1.2932 -0.2196  1.2139
  421EMI    H0C 7989   3.047   3.347   2.660 -0.9564 -3.2545 -0.7427
  421EMI    H0D 7990   3.001   3.461   2.787 -0.4633 -1.2821 -0.0135
  421EMI    N00 7991   2.859   3.467   2.630 -0.1057 -0.2830 -0.2835
  421EMI    C06 7992   2.660   3.522   2.330  0.4054  0.1451 -0.7338
  421EMI    H0F 7993   2.632   3.625   2.313  0.2404  0.0794 -0.8711
  421EMI    C0N 7994   2.757   3.499   2.221 -0.7143 -0.2979  0.0474
  421EMI    H0O 7995   2.785   3.395   2.210  0.5873  0.1940 -1.6293
  421EMI    H0P 7996   2.723   3.520   2.120  1.3232 -1.9201 -1.0427
  421EMI    H0Q 7997   2.840   3.566   2.239  0.6128 -1.9121  0.1061
  421EMI    N02 7998   2.724   3.526   2.465 -0.4262  0.5686 -0.5831
  421EMI    H0E 7999   2.583   3.447   2.324 -0.5658  1.1498 -1.1275
  422EMI    C01 8000   4.838   4.550   3.406 -0.0681  0.1883 -0.6211
  422EMI    C04 8001   4.742   4.403   3.271  0.5347 -0.2180 -0.4427
  422EMI    C03 8002   4.846   4.352   3.332  0.3465  0.2517 -0.6602
  422EMI    H07 8003   4.840   4.634   3.472 -1.2221  0.8787 -1.4230
  422EMI    H09 8004   4.667   4.353   3.213 -0.0976 -0.7989  0.8416
  422EMI    H08 8005   4.881   4.252   3.325 -0.4292 -0.0078 -0.9480
  422EMI    C05 8006   5.042   4.425   3.478  0.3830  0.3372  0.9127
  422EMI    H0B 8007   5.088   4.522   3.497  0.9385 -0.2169  2.6789
  422EMI    H0C 8008   5.023   4.380   3.574  0.4916  0.5275  1.0263
  422EMI    H0D 8009   5.116   4.375   3.418  0.0835  0.0400  0.7915
  422EMI    N00 8010   4.917   4.448   3.404  0.3813 -0.1337 -0.3715
  422EMI    C06 8011   4.616   4.622   3.298 -0.5337  0.7259  0.0525
  422EMI    H0F 8012   4.625   4.660   3.197  0.2605 -0.4952 -0.3604
  422EMI    C0N 8013   4.484   4.551   3.311 -0.2830  0.2819  0.0560
  422EMI    H0O 8014   4.460   4.511   3.213 -1.3273  1.9838 -0.4208
  422EMI    H0P 8015   4.485   4.462   3.373 -0.0628  0.6606  0.6047
  422EMI    H0Q 8016   4.402   4.616   3.337 -0.6495 -0.3177  0.3959
  422EMI    N02 8017   4.740   4.534   3.317 -0.0478  0.0758  0.5435
  422EMI    H0E 8018   4.624   4.706   3.365 -0.0414  0.2289  0.6299
  423EMI    C01 8019   4.229   0.410   4.152  0.4551 -1.1446  0.2431
  423EMI    C04 8020   4.342   0.289   4.288 -0.5972  0.0168 -0.1996
  423EMI    C03 8021   4.424   0.380   4.234 -0.6212  0.5602  0.2498
  423EMI    H07 8022   4.152   0.458   4.094  1.4739  0.5902  0.2645
  423EMI    H09 8023   4.359   0.206   4.353 -1.1873 -0.3318 -0.4829
  423EMI    H08 8024   4.531   0.384   4.241 -0.5341  0.1383 -0.6807
  423EMI    C05 8025   4.409   0.577   4.079  0.8273  0.9729  0.0198
  423EMI    H0B 8026   4.337   0.656   4.060 -0.2465 -0.1663 -0.8015
  423EMI    H0C 8027   4.489   0.625   4.133  0.6635  1.1730  0.0872
  423EMI    H0D 8028   4.428   0.540   3.979  1.2549  1.6405 -0.1511
  423EMI    N00 8029   4.350   0.467   4.160  0.2808  0.6692  0.2337
  423EMI    C06 8030   4.102   0.223   4.239  0.5394  0.6159 -0.4696
  423EMI    H0F 8031   4.118   0.149   4.317  4.4554  3.1166  1.4431
  423EMI    C0N 8032   3.972   0.298   4.258  0.7705 -0.6482 -0.1390
  423EMI    H0O 8033   3.887   0.238   4.228  0.8881 -0.4832 -0.8203
  423EMI    H0P 8034   3.962   0.329   4.362 -1.1550  0.0538 -0.4935
  423EMI    H0Q 8035   3.980   0.395   4.211 -0.4419  1.0091  2.7814
  423EMI    N02 8036   4.220   0.305   4.229 -0.2728 -0.4984  0.5099
  423EMI    H0E 8037   4.088   0.168   4.147  1.1937  1.2733 -0.9696
  424EMI    C01 8038   3.980   4.155   3.171  0.2875 -0.0395 -0.0587
  424EMI    C04 8039   3.946   4.334   3.294 -0.9215  0.0198  0.0487
  424EMI    C03 8040   4.054   4.267   3.332  0.1768 -0.3137 -0.2558
  424EMI    H07 8041   3.961   4.072   3.107 -2.8580  0.9758 -0.6226
  424EMI    H09 8042   3.888   4.415   3.332 -1.8636  0.1757 -1.6382
  424EMI    H08 8043   4.116   4.274   3.418 -1.1656  0.9883  0.6666
  424EMI    C05 8044   4.168   4.042   3.295  0.3473 -0.3428 -0.5679
  424EMI    H0B 8045   4.145   3.956   3.234  0.7325 -0.7421 -0.1596
  424EMI    H0C 8046   4.269   4.066   3.268  0.8718 -1.0635  0.7061
  424EMI    H0D 8047   4.151   4.009   3.397  0.2810  1.1161 -0.0870
  424EMI    N00 8048   4.078   4.153   3.258  0.1526  0.3892  0.6209
  424EMI    C06 8049   3.805   4.302   3.084  0.4364 -0.0810  0.0716
  424EMI    H0F 8050   3.713   4.276   3.134  1.6888 -0.6719  2.1891
  424EMI    C0N 8051   3.794   4.443   3.037 -0.2372  0.1292  0.1851
  424EMI    H0O 8052   3.701   4.446   2.980 -0.3156  1.0488  0.3330
  424EMI    H0P 8053   3.780   4.516   3.117 -2.3358 -1.8467  1.7390
  424EMI    H0Q 8054   3.879   4.485   2.985 -0.0887 -0.5042 -0.0922
  424EMI    N02 8055   3.906   4.267   3.178 -0.8005  0.4940 -0.3106
  424EMI    H0E 8056   3.807   4.237   2.998 -0.4682  1.5084 -1.2073
  425EMI    C01 8057   1.730   4.161   3.671  0.3896 -0.5150  0.6296
  425EMI    C04 8058   1.940   4.181   3.700 -0.1115 -0.4753  0.1079
  425EMI    C03 8059   1.899   4.099   3.798  0.1271  0.1416  0.3304
  425EMI    H07 8060   1.633   4.185   3.633  1.2939  1.7096 -0.4560
  425EMI    H09 8061   2.033   4.230   3.683 -1.4367  3.3096  2.3148
  425EMI    H08 8062   1.964   4.067   3.877  0.0728 -2.5797 -0.6227
  425EMI    C05 8063   1.663   4.010   3.853  0.6589 -0.4108 -0.4965
  425EMI    H0B 8064   1.569   3.993   3.802 -0.4715  0.8826  1.0286
  425EMI    H0C 8065   1.707   3.916   3.885 -0.6178 -1.9378 -2.9442
  425EMI    H0D 8066   1.657   4.073   3.940 -0.4037 -0.5827 -0.4246
  425EMI    N00 8067   1.761   4.082   3.774  0.3352  0.0109 -0.2489
  425EMI    C06 8068   1.844   4.327   3.524  0.0379  0.1344 -0.0352
  425EMI    H0F 8069   1.881   4.414   3.576 -0.3553  0.0708  0.3546
  425EMI    C0N 8070   1.933   4.293   3.394  0.2898  0.7471 -0.8466
  425EMI    H0O 8071   1.953   4.384   3.339 -0.6463  0.5511 -1.5424
  425EMI    H0P 8072   2.025   4.239   3.416  0.3423  1.4768  0.8901
  425EMI    H0Q 8073   1.879   4.222   3.332  0.0015 -0.3564  0.6145
  425EMI    N02 8074   1.837   4.222   3.623  0.3809  0.2536  0.1968
  425EMI    H0E 8075   1.746   4.351   3.487  0.3700  1.1222 -0.3009
  426EMI    C01 8076   4.587   2.465   2.367 -0.0602  0.1101 -1.1836
  426EMI    C04 8077   4.390   2.390   2.379 -0.0336  0.1596  0.1859
  426EMI    C03 8078   4.455   2.341   2.487 -0.6231 -0.3702  0.2276
  426EMI    H07 8079   4.676   2.515   2.337  1.2902 -0.0710  2.1112
  426EMI    H09 8080   4.289   2.379   2.347  0.5890  0.0504 -1.9255
  426EMI    H08 8081   4.419   2.281   2.568 -1.4777 -0.3605 -0.1318
  426EMI    C05 8082   4.690   2.373   2.575  0.1404 -0.2698 -0.5591
  426EMI    H0B 8083   4.783   2.417   2.541  0.6763 -2.2501 -1.7881
  426EMI    H0C 8084   4.660   2.415   2.670  2.2583 -1.1570  0.5526
  426EMI    H0D 8085   4.694   2.266   2.577 -2.1210 -0.3927  0.3134
  426EMI    N00 8086   4.580   2.395   2.478  0.4412  0.1892 -0.3018
  426EMI    C06 8087   4.429   2.534   2.181 -0.0414 -0.0799 -0.5619
  426EMI    H0F 8088   4.507   2.603   2.151  1.9912 -1.9200  0.2367
  426EMI    C0N 8089   4.409   2.435   2.070  0.2817 -0.4252  0.4472
  426EMI    H0O 8090   4.495   2.400   2.015 -0.9738 -2.7825 -0.1778
  426EMI    H0P 8091   4.348   2.353   2.107  0.7131 -0.2958  1.4751
  426EMI    H0Q 8092   4.356   2.482   1.988  1.4474  0.9671  0.4550
  426EMI    N02 8093   4.471   2.469   2.306 -0.6373  0.3114  0.3413
  426EMI    H0E 8094   4.340   2.595   2.193  0.7165  0.9538  0.0382
  427EMI    C01 8095   4.081   2.623   1.076 -0.3955 -0.2895 -0.3925
  427EMI    C04 8096   4.202   2.478   0.977  0.3547 -0.2326 -0.0032
  427EMI    C03 8097   4.285   2.583   1.008  0.3761 -0.7496  0.0563
  427EMI    H07 8098   4.005   2.678   1.128  1.1888 -1.2346  3.1708
  427EMI    H09 8099   4.222   2.383   0.932  0.2300  0.7506 -2.2581
  427EMI    H08 8100   4.389   2.598   0.989  0.2506 -0.5140 -0.4655
  427EMI    C05 8101   4.253   2.793   1.136 -0.1634 -0.3814 -0.6352
  427EMI    H0B 8102   4.324   2.762   1.211  1.4262  1.5011 -1.2844
  427EMI    H0C 8103   4.310   2.854   1.068 -0.3116 -0.5401 -0.9044
  427EMI    H0D 8104   4.167   2.837   1.184  0.0363  1.5261 -1.9513
  427EMI    N00 8105   4.205   2.674   1.070  0.3588  0.5666 -0.1702
  427EMI    C06 8106   3.956   2.421   1.014 -0.2881 -0.1739  0.0437
  427EMI    H0F 8107   3.872   2.474   1.056 -1.9334 -2.9122  0.4501
  427EMI    C0N 8108   3.915   2.404   0.865 -0.4729 -0.7978 -0.2776
  427EMI    H0O 8109   3.813   2.367   0.863 -0.5233 -0.7048  0.3891
  427EMI    H0P 8110   3.909   2.497   0.811  0.4671 -0.0991  0.7811
  427EMI    H0Q 8111   3.976   2.344   0.799  0.7766 -0.5906  0.6497
  427EMI    N02 8112   4.076   2.504   1.027  0.1724  0.3254  0.0215
  427EMI    H0E 8113   3.973   2.325   1.061 -0.2636 -0.2141 -0.0478
  428EMI    C01 8114   1.364   4.056   4.453 -0.4539 -0.0803  0.4824
  428EMI    C04 8115   1.245   4.123   4.283 -0.8861 -0.0413  0.0556
  428EMI    C03 8116   1.164   4.093   4.380  0.0439 -0.1853 -0.1689
  428EMI    H07 8117   1.444   4.030   4.519  0.2311 -0.1163 -0.3384
  428EMI    H09 8118   1.222   4.158   4.185  2.0601  0.8756 -0.3941
  428EMI    H08 8119   1.057   4.100   4.381 -0.0184  0.4738 -2.8295
  428EMI    C05 8120   1.192   4.014   4.630  0.5987  0.4499 -0.9218
  428EMI    H0B 8121   1.090   4.037   4.659  1.1439  0.7912  0.8905
  428EMI    H0C 8122   1.196   3.906   4.636 -1.2817  0.4141  1.0754
  428EMI    H0D 8123   1.272   4.045   4.696  1.2151  0.4149 -1.6413
  428EMI    N00 8124   1.237   4.055   4.492  0.4077  0.3562  0.1514
  428EMI    C06 8125   1.497   4.097   4.246 -0.0115 -0.3844 -0.1311
  428EMI    H0F 8126   1.481   4.123   4.142 -0.2848  0.1493  0.0420
  428EMI    C0N 8127   1.583   4.200   4.304 -0.2072 -0.3648 -0.8523
  428EMI    H0O 8128   1.667   4.226   4.240  1.2224  1.3696  1.5454
  428EMI    H0P 8129   1.533   4.293   4.329 -1.8590 -1.5531  0.4643
  428EMI    H0Q 8130   1.630   4.164   4.394 -1.2739 -0.7737 -0.4437
  428EMI    N02 8131   1.373   4.091   4.327 -0.2444 -1.1807  1.3011
  428EMI    H0E 8132   1.546   4.001   4.241  2.0317  0.5941  0.2449
  429EMI    C01 8133   3.236   0.936   1.563 -0.5019  0.0672 -0.0220
  429EMI    C04 8134   3.134   1.061   1.417 -0.4991  0.3309 -0.5334
  429EMI    C03 8135   3.115   0.931   1.384 -0.2391  0.5012  1.2350
  429EMI    H07 8136   3.307   0.904   1.636  1.5156  1.0115 -1.4499
  429EMI    H09 8137   3.097   1.151   1.373 -0.9806  0.7722  0.7447
  429EMI    H08 8138   3.058   0.882   1.308  1.0046 -0.6680  1.0041
  429EMI    C05 8139   3.198   0.709   1.472  0.1537 -0.3924  0.1451
  429EMI    H0B 8140   3.277   0.674   1.537 -2.5812 -3.1671  2.2765
  429EMI    H0C 8141   3.108   0.667   1.512 -1.2212  0.7081 -1.6396
  429EMI    H0D 8142   3.206   0.673   1.370 -1.1118  0.3892 -0.2507
  429EMI    N00 8143   3.187   0.854   1.468  0.8880 -0.0288 -0.2475
  429EMI    C06 8144   3.267   1.181   1.601 -0.2917  0.1848 -0.2290
  429EMI    H0F 8145   3.236   1.270   1.548 -0.6685  1.8095  2.5071
  429EMI    C0N 8146   3.230   1.200   1.743  0.0540  0.1007  0.5088
  429EMI    H0O 8147   3.122   1.197   1.752 -0.0075 -2.1467 -0.2913
  429EMI    H0P 8148   3.261   1.103   1.781 -1.6485 -1.0032 -0.7798
  429EMI    H0Q 8149   3.271   1.281   1.801  1.0083 -0.9074  1.3088
  429EMI    N02 8150   3.210   1.062   1.533  0.5448 -0.5211 -0.1664
  429EMI    H0E 8151   3.373   1.175   1.579 -0.2932 -2.6816  0.2509
  430EMI    C01 8152   2.259   1.327   2.928  0.5098  0.3000 -0.5064
  430EMI    C04 8153   2.272   1.231   2.734 -0.0228 -0.3083  0.0356
  430EMI    C03 8154   2.389   1.299   2.754  0.4344  0.0323 -0.5708
  430EMI    H07 8155   2.221   1.366   3.020 -1.2955 -2.0159 -0.1944
  430EMI    H09 8156   2.245   1.170   2.651  2.5645  0.7889 -1.7356
  430EMI    H08 8157   2.476   1.310   2.693  2.0354  0.3870  1.6386
  430EMI    C05 8158   2.480   1.413   2.973  0.3256 -0.5161 -0.1896
  430EMI    H0B 8159   2.560   1.454   2.913  0.1696  1.0429  0.6173
  430EMI    H0C 8160   2.423   1.480   3.034  1.0689 -1.4240  1.5606
  430EMI    H0D 8161   2.522   1.343   3.043 -1.9633  0.8303  2.7783
  430EMI    N00 8162   2.383   1.348   2.883  0.2691 -0.7334 -0.6726
  430EMI    C06 8163   2.056   1.192   2.863  0.0708  0.1395 -0.8732
  430EMI    H0F 8164   1.997   1.256   2.928 -1.2918 -2.7442  0.9725
  430EMI    C0N 8165   1.981   1.203   2.732  0.5092  0.2674  0.7006
  430EMI    H0O 8166   1.886   1.157   2.754  1.4180 -0.8716  2.4971
  430EMI    H0P 8167   1.960   1.305   2.702 -2.1838 -0.7329 -1.1897
  430EMI    H0Q 8168   2.035   1.144   2.659 -1.1210 -1.5871  0.9236
  430EMI    N02 8169   2.189   1.249   2.848 -0.3948 -0.2084  0.2361
  430EMI    H0E 8170   2.058   1.093   2.907 -1.5778 -0.4516 -2.0069
  431EMI    C01 8171   0.174   1.397   3.313  0.3023 -0.6163 -0.1429
  431EMI    C04 8172   0.020   1.316   3.186 -0.0310 -0.1909  0.1176
  431EMI    C03 8173  -0.017   1.439   3.221  0.5755 -0.0038 -0.2057
  431EMI    H07 8174   0.270   1.404   3.360 -0.8508  1.2128  2.0784
  431EMI    H09 8175  -0.034   1.246   3.125  3.7780 -3.1628 -0.2191
  431EMI    H08 8176  -0.112   1.478   3.194 -0.5431 -2.1375  0.3948
  431EMI    C05 8177   0.090   1.623   3.353 -0.0458 -0.3597 -0.3907
  431EMI    H0B 8178   0.191   1.658   3.367  0.9107 -1.9770 -2.7298
  431EMI    H0C 8179   0.030   1.697   3.302 -0.9372 -1.5930 -1.1924
  431EMI    H0D 8180   0.041   1.609   3.449 -1.4870  0.1626 -1.0180
  431EMI    N00 8181   0.085   1.491   3.294  0.0340  0.1046  0.1017
  431EMI    C06 8182   0.220   1.163   3.238  1.0861  0.2328 -0.4732
  431EMI    H0F 8183   0.177   1.093   3.308  0.2292  0.4517 -0.7669
  431EMI    C0N 8184   0.233   1.127   3.099 -0.6367 -0.2489  1.0618
  431EMI    H0O 8185   0.145   1.081   3.056 -0.2495 -0.2105  0.2079
  431EMI    H0P 8186   0.243   1.211   3.031  0.0014 -1.3309 -0.2170
  431EMI    H0Q 8187   0.323   1.073   3.072  0.2368  2.0275 -0.9943
  431EMI    N02 8188   0.141   1.292   3.243 -0.6620  0.0038 -0.4272
  431EMI    H0E 8189   0.318   1.197   3.269  0.0404  1.3710  1.7713
  432EMI    C01 8190   1.711   2.573   5.060 -0.0016  0.1527 -0.6306
  432EMI    C04 8191   1.806   2.641   5.246  0.4999  0.1773  0.1385
  432EMI    C03 8192   1.866   2.532   5.210 -0.0630  0.4323 -0.7125
  432EMI    H07 8193   1.664   2.578   4.964  1.0005  0.2661 -1.1319
  432EMI    H09 8194   1.823   2.702   5.332 -1.3743 -0.3979  0.9827
  432EMI    H08 8195   1.950   2.480   5.251  0.1536 -1.9644 -3.7860
  432EMI    C05 8196   1.843   2.363   5.023  0.5767 -0.1034 -1.0234
  432EMI    H0B 8197   1.840   2.364   4.915  0.3478  0.3565 -1.0125
  432EMI    H0C 8198   1.948   2.358   5.046  0.1237 -0.3873  1.2429
  432EMI    H0D 8199   1.781   2.282   5.059 -0.9374  1.3278 -0.2979
  432EMI    N00 8200   1.808   2.486   5.091  0.1930  0.3871  0.6127
  432EMI    C06 8201   1.618   2.779   5.149  0.7293  0.8433  0.0900
  432EMI    H0F 8202   1.550   2.784   5.232  0.4915  2.2162 -0.1644
  432EMI    C0N 8203   1.726   2.890   5.147 -0.2074 -0.2851 -0.1578
  432EMI    H0O 8204   1.746   2.914   5.250  1.0045  1.6589 -0.7943
  432EMI    H0P 8205   1.822   2.863   5.104  0.2835  2.3924 -0.9146
  432EMI    H0Q 8206   1.694   2.977   5.090  1.9977 -1.3365 -3.2947
  432EMI    N02 8207   1.696   2.658   5.159  0.4912 -0.1234  0.2388
  432EMI    H0E 8208   1.573   2.785   5.051 -1.1128 -1.0043  0.7708
  433EMI    C01 8209   2.706   1.349   3.845  0.2089  0.0642 -0.5148
  433EMI    C04 8210   2.794   1.506   3.716  0.0528  0.4803 -0.0381
  433EMI    C03 8211   2.659   1.499   3.693  0.0503 -0.3096 -0.5389
  433EMI    H07 8212   2.689   1.275   3.919 -0.3567  0.9518  0.2684
  433EMI    H09 8213   2.867   1.572   3.675 -0.3687 -0.2743 -2.1016
  433EMI    H08 8214   2.593   1.561   3.637 -1.5186 -1.0337  0.4240
  433EMI    C05 8215   2.463   1.364   3.781 -1.4445 -0.0776  0.3669
  433EMI    H0B 8216   2.433   1.338   3.882 -0.2984  0.2725  0.8107
  433EMI    H0C 8217   2.406   1.444   3.736  0.6399  1.5120  0.3859
  433EMI    H0D 8218   2.463   1.277   3.718  0.2457  1.4489 -1.9087
  433EMI    N00 8219   2.608   1.405   3.780  0.1864  0.4632  0.0880
  433EMI    C06 8220   2.949   1.381   3.868 -0.5235  1.1734 -0.1669
  433EMI    H0F 8221   2.934   1.343   3.968  0.4584  0.9848 -0.0836
  433EMI    C0N 8222   3.043   1.296   3.787  0.0567  0.7450  0.6179
  433EMI    H0O 8223   3.013   1.192   3.783 -2.9355  1.5561 -1.5958
  433EMI    H0P 8224   3.032   1.327   3.684 -0.2038 -0.4420  0.2753
  433EMI    H0Q 8225   3.144   1.299   3.826  0.3730 -0.7065 -0.0261
  433EMI    N02 8226   2.822   1.409   3.811  0.3183  0.3373  0.1900
  433EMI    H0E 8227   2.991   1.480   3.875 -0.4004  1.0322  1.4528
  434EMI    C01 8228   3.510   2.609   4.369  0.8561 -0.1306  0.0594
  434EMI    C04 8229   3.290   2.629   4.322 -0.3199 -0.5333  0.2235
  434EMI    C03 8230   3.334   2.517   4.275  0.6167 -0.0556 -0.1813
  434EMI    H07 8231   3.601   2.638   4.417  1.2291 -0.2326 -0.5757
  434EMI    H09 8232   3.194   2.676   4.317 -0.4481 -0.6302  1.5219
  434EMI    H08 8233   3.281   2.449   4.212  0.9286  1.3389 -2.0467
  434EMI    C05 8234   3.555   2.386   4.267 -0.1448  0.3641  0.7761
  434EMI    H0B 8235   3.558   2.383   4.159 -0.8420  0.8973  0.7311
  434EMI    H0C 8236   3.655   2.381   4.307 -1.2076 -2.8401  3.5030
  434EMI    H0D 8237   3.497   2.295   4.276 -2.8315  1.6387 -1.7385
  434EMI    N00 8238   3.471   2.502   4.300 -0.4740  0.0108 -0.4457
  434EMI    C06 8239   3.401   2.812   4.455 -0.4772  0.6946 -0.4015
  434EMI    H0F 8240   3.474   2.811   4.534 -0.2108  1.1870 -0.6348
  434EMI    C0N 8241   3.436   2.933   4.371 -1.2402  0.7245 -0.2945
  434EMI    H0O 8242   3.355   2.955   4.303  0.4114  1.2332 -2.1804
  434EMI    H0P 8243   3.459   3.023   4.428  2.4331 -0.3683  0.2196
  434EMI    H0Q 8244   3.525   2.906   4.316  0.7882 -2.1439  3.8902
  434EMI    N02 8245   3.402   2.692   4.377 -0.2151  0.3140  0.1514
  434EMI    H0E 8246   3.303   2.812   4.500 -0.9374 -3.0097 -1.1196
  435EMI    C01 8247   2.962   5.102   3.751  0.2779  0.3735  0.8013
  435EMI    C04 8248   3.009   5.278   3.875 -0.2121  0.3836 -0.6233
  435EMI    C03 8249   3.102   5.260   3.780 -0.1647 -0.0659 -0.1769
  435EMI    H07 8250   2.923   5.013   3.707  1.8017 -0.8248  1.7830
  435EMI    H09 8251   3.018   5.350   3.953  3.2142 -1.1661  0.6134
  435EMI    H08 8252   3.188   5.323   3.781  0.2869 -0.6431  1.6707
  435EMI    C05 8253   3.178   5.071   3.623  0.5894 -0.5818  0.5840
  435EMI    H0B 8254   3.157   4.966   3.634  1.6223 -0.7499  1.1198
  435EMI    H0C 8255   3.162   5.094   3.519  2.7114 -1.0786  0.1129
  435EMI    H0D 8256   3.280   5.089   3.652  1.5595 -1.2473 -2.1736
  435EMI    N00 8257   3.082   5.138   3.718 -0.1497 -0.0415  0.0211
  435EMI    C06 8258   2.787   5.153   3.913 -0.0550 -0.1235 -0.5854
  435EMI    H0F 8259   2.786   5.045   3.927 -0.2580  0.0821  1.2750
  435EMI    C0N 8260   2.803   5.211   4.055  0.5605 -0.1093 -0.0411
  435EMI    H0O 8261   2.893   5.176   4.104  2.0491  1.0366 -1.8483
  435EMI    H0P 8262   2.809   5.319   4.056 -2.8380  0.1919 -0.4191
  435EMI    H0Q 8263   2.716   5.190   4.117  1.1681  0.2313  0.9440
  435EMI    N02 8264   2.914   5.178   3.850  0.2419  0.2852  0.0807
  435EMI    H0E 8265   2.707   5.198   3.857  0.7883  2.7693  0.3776
  436EMI    C01 8266   2.849   0.956   2.971  0.4246  0.1855  0.6074
  436EMI    C04 8267   2.786   1.159   2.953 -0.6722  0.0248  0.0706
  436EMI    C03 8268   2.692   1.091   3.014 -0.3375  0.4625 -0.2041
  436EMI    H07 8269   2.899   0.862   2.966 -3.1036 -1.7757 -2.1551
  436EMI    H09 8270   2.794   1.262   2.927  1.2288 -0.4328 -1.4092
  436EMI    H08 8271   2.593   1.107   3.050  0.2342 -1.2475  2.4010
  436EMI    C05 8272   2.660   0.841   3.076 -0.5693  0.9255  0.1800
  436EMI    H0B 8273   2.560   0.865   3.106 -0.7210 -1.4233  1.7781
  436EMI    H0C 8274   2.662   0.762   3.002  1.1763 -0.3139  1.4467
  436EMI    H0D 8275   2.713   0.804   3.162  2.8454 -0.0478 -2.0978
  436EMI    N00 8276   2.731   0.959   3.026 -0.0113 -0.2769 -0.3726
  436EMI    C06 8277   3.013   1.093   2.869  0.3310 -0.6066 -0.1242
  436EMI    H0F 8278   3.048   1.185   2.916  1.6227  0.5135 -3.0288
  436EMI    C0N 8279   3.120   0.995   2.904 -0.6696  0.3360 -0.1106
  436EMI    H0O 8280   3.098   0.930   2.988  0.0491  0.1122 -0.0909
  436EMI    H0P 8281   3.148   0.941   2.815 -0.2547  1.2978 -0.5866
  436EMI    H0Q 8282   3.204   1.052   2.943 -1.2904  1.2211 -0.0471
  436EMI    N02 8283   2.884   1.070   2.924  0.6625  0.0005 -0.2905
  436EMI    H0E 8284   2.997   1.109   2.764 -0.3543 -1.2672 -0.1211
  437EMI    C01 8285   1.350   3.016   0.144 -0.5918 -0.9727  0.1017
  437EMI    C04 8286   1.470   3.169   0.040 -0.4345  0.1501 -0.9965
  437EMI    C03 8287   1.398   3.100  -0.050  0.4398  0.1523 -0.3120
  437EMI    H07 8288   1.300   2.963   0.223 -0.3670 -0.8258  0.3451
  437EMI    H09 8289   1.530   3.256   0.031 -1.9432  1.5694  1.5815
  437EMI    H08 8290   1.395   3.105  -0.157  1.0924 -0.5687 -0.3742
  437EMI    C05 8291   1.216   2.925  -0.046 -0.2595 -0.4549  0.6249
  437EMI    H0B 8292   1.209   2.837   0.016  0.9253 -0.7116  0.4019
  437EMI    H0C 8293   1.121   2.976  -0.052  0.3168  0.5885  0.1316
  437EMI    H0D 8294   1.240   2.887  -0.144  0.7995  0.9358  0.3237
  437EMI    N00 8295   1.319   3.006   0.015 -0.6277 -0.6279  0.0359
  437EMI    C06 8296   1.505   3.134   0.300  0.2143 -0.5828  0.0288
  437EMI    H0F 8297   1.589   3.067   0.312  0.3052 -0.5234 -0.2747
  437EMI    C0N 8298   1.547   3.280   0.308  0.2093  0.3878  0.1362
  437EMI    H0O 8299   1.583   3.330   0.219 -0.3411  1.8160  0.6817
  437EMI    H0P 8300   1.466   3.345   0.338  1.0797  0.9747  1.3430
  437EMI    H0Q 8301   1.623   3.296   0.384 -0.3023  2.0094  0.3529
  437EMI    N02 8302   1.441   3.111   0.165  0.6993 -0.1443 -0.4338
  437EMI    H0E 8303   1.430   3.117   0.376 -3.8591  0.1109 -3.5179
  438EMI    C01 8304   0.355   1.774   1.009 -0.2197  0.2714  0.1053
  438EMI    C04 8305   0.471   1.955   1.043 -0.5688  0.2689 -0.9933
  438EMI    C03 8306   0.347   1.992   1.034  0.2505 -0.2704  0.3827
  438EMI    H07 8307   0.325   1.671   1.000 -0.5538  0.3556  0.2287
  438EMI    H09 8308   0.562   2.010   1.052  0.7158 -2.0076  1.7903
  438EMI    H08 8309   0.307   2.091   1.033  2.5328  0.7670  2.3726
  438EMI    C05 8310   0.122   1.867   0.997 -0.0592 -0.0247 -0.1057
  438EMI    H0B 8311   0.082   1.934   0.923  0.8161 -1.2724 -1.7709
  438EMI    H0C 8312   0.111   1.769   0.954 -0.2232  0.3223 -0.8681
  438EMI    H0D 8313   0.055   1.872   1.082 -0.8368  0.2505 -0.7265
  438EMI    N00 8314   0.270   1.874   1.026  0.0879 -0.3440 -0.7048
  438EMI    C06 8315   0.604   1.746   1.026  0.0200  0.1098 -0.1542
  438EMI    H0F 8316   0.658   1.771   0.935 -1.1137 -0.6942 -1.0728
  438EMI    C0N 8317   0.674   1.756   1.166 -0.1732  0.1105  0.3553
  438EMI    H0O 8318   0.736   1.669   1.182 -1.7233 -0.6950  2.4962
  438EMI    H0P 8319   0.736   1.844   1.159 -1.1090  0.9200  1.8293
  438EMI    H0Q 8320   0.595   1.763   1.241 -0.7532  1.6221 -0.3620
  438EMI    N02 8321   0.477   1.820   1.022 -0.2991 -0.5396 -0.2482
  438EMI    H0E 8322   0.558   1.650   1.013 -2.3016  1.2052 -0.4510
  439EMI    C01 8323   3.150   1.770   1.614 -0.0999 -0.8421 -0.6565
  439EMI    C04 8324   3.317   1.647   1.680 -0.1017 -0.0712  0.6589
  439EMI    C03 8325   3.273   1.599   1.565  0.5008  0.5438  0.6490
  439EMI    H07 8326   3.080   1.851   1.614  1.0607  0.1916 -0.3432
  439EMI    H09 8327   3.401   1.616   1.738  1.4258 -0.8101 -1.8255
  439EMI    H08 8328   3.324   1.530   1.502  0.9877  0.3766  1.2142
  439EMI    C05 8329   3.090   1.656   1.401  0.8523 -0.0509 -0.2209
  439EMI    H0B 8330   2.983   1.668   1.412  0.9858 -0.8908  2.6154
  439EMI    H0C 8331   3.127   1.737   1.339  0.3955  1.2873  1.1871
  439EMI    H0D 8332   3.105   1.556   1.363 -1.9737 -0.1088 -1.4787
  439EMI    N00 8333   3.162   1.675   1.524  0.0537  0.7116  0.1140
  439EMI    C06 8334   3.233   1.813   1.853  0.5252 -0.4501  0.3329
  439EMI    H0F 8335   3.158   1.889   1.863  0.2961 -0.9015  2.6175
  439EMI    C0N 8336   3.198   1.709   1.960 -0.5920 -0.1201 -0.1408
  439EMI    H0O 8337   3.205   1.764   2.053 -2.9630  2.3785 -1.3240
  439EMI    H0P 8338   3.099   1.667   1.945 -0.8786  1.4949 -3.8078
  439EMI    H0Q 8339   3.274   1.632   1.956  2.1773  2.4812 -2.0283
  439EMI    N02 8340   3.233   1.748   1.718  1.1452  0.4017 -0.5473
  439EMI    H0E 8341   3.319   1.877   1.868 -0.7730  2.0464 -2.0094
  440EMI    C01 8342   3.927   2.587   1.949  0.3375 -0.0740 -0.3753
  440EMI    C04 8343   4.111   2.640   1.842 -0.3871  0.0798 -0.5073
  440EMI    C03 8344   4.085   2.742   1.929  0.5864 -0.3017  0.0498
  440EMI    H07 8345   3.844   2.530   1.986  2.2212 -1.8021  1.4251
  440EMI    H09 8346   4.197   2.626   1.780 -0.5967 -0.2159 -0.7345
  440EMI    H08 8347   4.138   2.831   1.955 -0.8463  0.7083 -0.3892
  440EMI    C05 8348   3.922   2.764   2.114 -0.1929 -0.4413  0.3494
  440EMI    H0B 8349   3.998   2.814   2.173 -2.1704  1.3963  1.4721
  440EMI    H0C 8350   3.849   2.840   2.090  2.1007  1.7289 -0.2247
  440EMI    H0D 8351   3.868   2.688   2.167 -2.6688 -0.6773 -2.2787
  440EMI    N00 8352   3.966   2.705   1.990 -0.0249 -0.9032  0.0314
  440EMI    C06 8353   4.005   2.431   1.769  0.1505 -0.5480 -0.0508
  440EMI    H0F 8354   4.107   2.399   1.752  0.5504  1.0052 -0.7320
  440EMI    C0N 8355   3.947   2.321   1.838  0.8377  0.2566 -0.1273
  440EMI    H0O 8356   3.979   2.323   1.941  0.5457  1.3127 -0.0454
  440EMI    H0P 8357   3.839   2.326   1.840  0.8514  0.1950  1.1451
  440EMI    H0Q 8358   3.979   2.227   1.796 -4.1154 -1.6989 -0.2177
  440EMI    N02 8359   4.007   2.553   1.848 -0.8393 -0.0626  0.3835
  440EMI    H0E 8360   3.958   2.452   1.674  0.0263  1.2774  0.3869
  441EMI    C01 8361   0.238   2.981   2.773  0.4227 -0.0476 -0.3529
  441EMI    C04 8362   0.446   3.021   2.822 -0.7409 -0.5665  0.5058
  441EMI    C03 8363   0.405   3.115   2.731  0.0775 -0.2940  0.4765
  441EMI    H07 8364   0.141   2.937   2.778  1.1498 -1.8030 -0.6432
  441EMI    H09 8365   0.536   3.024   2.879 -0.6342  0.7417  0.2860
  441EMI    H08 8366   0.457   3.200   2.694  0.7505  0.2267  2.5372
  441EMI    C05 8367   0.186   3.159   2.609 -0.0644 -0.2737 -0.0098
  441EMI    H0B 8368   0.169   3.103   2.518 -2.2906 -1.1497  0.8755
  441EMI    H0C 8369   0.091   3.194   2.648 -0.3206 -0.2124 -0.6727
  441EMI    H0D 8370   0.236   3.249   2.577 -1.1070  0.5812  0.6764
  441EMI    N00 8371   0.270   3.090   2.708  0.0906 -0.3426 -0.4208
  441EMI    C06 8372   0.349   2.819   2.937 -0.0356  0.0442  0.7832
  441EMI    H0F 8373   0.434   2.771   2.890 -0.7499  0.3967 -0.9433
  441EMI    C0N 8374   0.381   2.865   3.077 -0.5521  0.1311  0.0671
  441EMI    H0O 8375   0.419   2.775   3.124  1.3755  1.7206  1.7240
  441EMI    H0P 8376   0.450   2.948   3.078 -1.1879  0.6696  1.0102
  441EMI    H0Q 8377   0.285   2.885   3.124 -0.7945 -3.1734  1.2936
  441EMI    N02 8378   0.336   2.938   2.846 -0.5668  0.5499  0.4661
  441EMI    H0E 8379   0.253   2.769   2.929 -1.3859  2.1883  2.3864
  442EMI    C01 8380   3.800   4.743   2.861 -1.2800 -0.0426 -0.0870
  442EMI    C04 8381   3.739   4.850   2.688 -0.4353 -0.3953  0.3375
  442EMI    C03 8382   3.870   4.880   2.707  0.1746 -0.6756  0.6665
  442EMI    H07 8383   3.796   4.689   2.953  0.2167 -0.4198 -0.2104
  442EMI    H09 8384   3.679   4.888   2.609  1.0687  0.6108 -0.3539
  442EMI    H08 8385   3.942   4.944   2.661  1.7159 -1.8974  1.2656
  442EMI    C05 8386   4.041   4.804   2.865 -0.7622  0.1755  1.1387
  442EMI    H0B 8387   4.072   4.872   2.942  0.7925  0.4609  0.3053
  442EMI    H0C 8388   4.064   4.706   2.905  0.3395  0.4896  1.2898
  442EMI    H0D 8389   4.102   4.818   2.777 -2.1594  0.3719  0.1590
  442EMI    N00 8390   3.904   4.814   2.819  0.0627  0.2617 -0.4371
  442EMI    C06 8391   3.569   4.717   2.818  0.3625  0.0989 -0.1533
  442EMI    H0F 8392   3.492   4.789   2.798  0.6713  1.0575  1.9135
  442EMI    C0N 8393   3.547   4.592   2.745 -0.1444  0.8034  0.5741
  442EMI    H0O 8394   3.620   4.578   2.666  0.4182 -0.8552  1.3349
  442EMI    H0P 8395   3.544   4.505   2.809  1.6816  0.3150  0.0416
  442EMI    H0Q 8396   3.454   4.577   2.691  0.2561 -0.5787  0.2144
  442EMI    N02 8397   3.700   4.772   2.791  0.4269 -0.1739  0.1464
  442EMI    H0E 8398   3.554   4.705   2.924 -1.5427 -2.5720 -0.6303
  443EMI    C01 8399   2.028   4.427   4.789  0.0673 -0.6337  1.1745
  443EMI    C04 8400   2.016   4.282   4.943  0.2928 -0.1920 -1.0003
  443EMI    C03 8401   1.945   4.231   4.845 -0.6244  0.0058 -0.0018
  443EMI    H07 8402   2.067   4.513   4.739  0.9586 -0.6978  1.7235
  443EMI    H09 8403   2.032   4.231   5.036  0.4026  1.1139 -0.2842
  443EMI    H08 8404   1.889   4.140   4.855  0.5710 -0.8793 -0.9808
  443EMI    C05 8405   1.865   4.333   4.626  0.0665  0.4186 -0.2235
  443EMI    H0B 8406   1.859   4.431   4.582  1.8668  0.7424  0.1814
  443EMI    H0C 8407   1.911   4.257   4.565  1.1666  1.4688 -0.7370
  443EMI    H0D 8408   1.767   4.305   4.662  0.7921  0.2258  1.7130
  443EMI    N00 8409   1.943   4.334   4.749 -0.6711  0.6853 -0.2710
  443EMI    C06 8410   2.173   4.476   4.985  0.0177  0.2161  0.3241
  443EMI    H0F 8411   2.127   4.536   5.062  0.2648  0.3861  0.3429
  443EMI    C0N 8412   2.274   4.377   5.033 -0.4448  0.5862 -0.8993
  443EMI    H0O 8413   2.340   4.420   5.107 -1.1912 -2.5448  1.7984
  443EMI    H0P 8414   2.226   4.299   5.091  2.3743  0.0679  0.9653
  443EMI    H0Q 8415   2.335   4.337   4.952 -2.0514 -0.0773 -1.8275
  443EMI    N02 8416   2.064   4.406   4.912 -0.5371  0.8871  0.6556
  443EMI    H0E 8417   2.227   4.540   4.917  0.9453  0.3180  1.1326
  444EMI    C01 8418   4.863   2.238   0.516  0.4027 -0.3726 -0.0807
  444EMI    C04 8419   4.918   2.057   0.412 -0.0569 -0.2450  0.2570
  444EMI    C03 8420   4.941   2.040   0.539 -0.4058  0.0148  0.7591
  444EMI    H07 8421   4.819   2.333   0.535  3.3706  1.1193 -0.1077
  444EMI    H09 8422   4.939   1.988   0.333  0.1008 -1.1781  1.0902
  444EMI    H08 8423   4.976   1.956   0.594 -1.8036 -0.9650  0.2279
  444EMI    C05 8424   4.906   2.173   0.757 -0.8066  0.0957 -0.4108
  444EMI    H0B 8425   4.939   2.081   0.804  1.2729  1.1065  0.1831
  444EMI    H0C 8426   4.981   2.246   0.782  0.1795 -0.9246 -0.2905
  444EMI    H0D 8427   4.817   2.209   0.807  0.6251  2.4268  0.5946
  444EMI    N00 8428   4.903   2.156   0.610  0.2008 -0.2763  0.1760
  444EMI    C06 8429   4.825   2.252   0.278 -0.5713 -0.3294 -0.7895
  444EMI    H0F 8430   4.907   2.281   0.213 -0.9283 -0.0751 -1.1304
  444EMI    C0N 8431   4.724   2.172   0.212 -0.0826 -0.4756 -0.0306
  444EMI    H0O 8432   4.651   2.138   0.285 -0.0687 -2.4974 -0.9061
  444EMI    H0P 8433   4.682   2.227   0.128 -0.0178 -0.9890 -0.4053
  444EMI    H0Q 8434   4.764   2.087   0.159 -0.2233 -0.2009 -0.5917
  444EMI    N02 8435   4.868   2.183   0.400 -0.3203  0.3806  0.3891
  444EMI    H0E 8436   4.788   2.346   0.316  0.4773  0.2805 -1.2222
  445EMI    C01 8437   5.039   4.529   4.098 -0.5990 -0.0176  0.1443
  445EMI    C04 8438   5.081   4.736   4.045  0.2108  0.2225 -0.6440
  445EMI    C03 8439   5.147   4.708   4.161 -0.2556 -0.3997  0.3520
  445EMI    H07 8440   5.016   4.425   4.095  1.0321 -0.3890 -0.7512
  445EMI    H09 8441   5.076   4.823   3.983  1.2243  0.7886  0.0355
  445EMI    H08 8442   5.201   4.775   4.225 -1.0073 -0.3663  0.9715
  445EMI    C05 8443   5.162   4.505   4.317 -0.0446 -0.5247 -0.0983
  445EMI    H0B 8444   5.103   4.416   4.330 -0.7581  0.1203  1.2730
  445EMI    H0C 8445   5.264   4.470   4.323 -0.5229 -1.9168  0.3954
  445EMI    H0D 8446   5.143   4.562   4.407 -3.3108 -0.6706 -0.5901
  445EMI    N00 8447   5.117   4.578   4.195  0.4741 -0.3916  0.0475
  445EMI    C06 8448   4.914   4.609   3.897 -0.3053 -0.1325 -1.3076
  445EMI    H0F 8449   4.867   4.704   3.875 -0.7779  0.1470  0.6828
  445EMI    C0N 8450   4.996   4.576   3.782 -0.4510  0.4650  0.4397
  445EMI    H0O 8451   4.957   4.630   3.696  2.1257  2.4812  0.4127
  445EMI    H0P 8452   5.099   4.608   3.786  0.2926 -1.5748 -0.6481
  445EMI    H0Q 8453   4.999   4.468   3.768 -1.0704  0.6324 -1.2033
  445EMI    N02 8454   4.998   4.628   4.017 -0.9713 -0.0623 -0.2236
  445EMI    H0E 8455   4.843   4.528   3.906 -0.3472 -0.1937 -2.0902
  446EMI    C01 8456   0.209   2.659   1.657 -0.2967  0.7716  0.0964
  446EMI    C04 8457   0.095   2.715   1.479  0.4081 -0.0023 -0.4018
  446EMI    C03 8458   0.073   2.583   1.500  0.2061 -0.1540 -0.4541
  446EMI    H07 8459   0.269   2.653   1.746  2.0325 -2.0903 -1.4786
  446EMI    H09 8460   0.055   2.770   1.396  0.3395  0.8089  0.1553
  446EMI    H08 8461   0.018   2.510   1.446  0.4254 -1.2704  0.7551
  446EMI    C05 8462   0.136   2.417   1.677  0.0406 -0.1044 -0.7527
  446EMI    H0B 8463   0.190   2.351   1.611  2.5360 -0.1503  1.1744
  446EMI    H0C 8464   0.185   2.405   1.772  0.7887 -1.2224 -1.2523
  446EMI    H0D 8465   0.030   2.395   1.675  0.1883 -0.9856  0.4998
  446EMI    N00 8466   0.144   2.553   1.616  0.3627  0.0686 -0.4936
  446EMI    C06 8467   0.192   2.902   1.619  0.1535  0.1884  0.0116
  446EMI    H0F 8468   0.090   2.939   1.624  0.0352 -0.2397  1.1851
  446EMI    C0N 8469   0.239   2.929   1.761  0.4484 -0.3880  0.2488
  446EMI    H0O 8470   0.344   2.905   1.775  0.5205  1.1123  3.1562
  446EMI    H0P 8471   0.235   3.037   1.775  1.0419 -0.3198 -0.0890
  446EMI    H0Q 8472   0.178   2.885   1.840  1.0645 -0.8734  0.4608
  446EMI    N02 8473   0.176   2.764   1.587 -0.1290  0.4436 -0.3010
  446EMI    H0E 8474   0.240   2.943   1.532 -0.5068 -0.6589 -0.7770
  447EMI    C01 8475   0.217   3.518   3.875 -0.3005 -1.0488  0.0256
  447EMI    C04 8476   0.239   3.734   3.879 -0.9227 -0.2390  0.2966
  447EMI    C03 8477   0.353   3.682   3.917 -0.2116  0.9116 -0.4281
  447EMI    H07 8478   0.162   3.426   3.870 -1.8916 -0.1730  0.6689
  447EMI    H09 8479   0.204   3.834   3.869 -1.0822 -0.1952  1.2069
  447EMI    H08 8480   0.445   3.733   3.930 -0.3467  1.0053  0.2030
  447EMI    C05 8481   0.458   3.453   3.924 -0.4308 -0.2559 -0.8525
  447EMI    H0B 8482   0.432   3.379   3.997  1.5980  0.2808  0.5099
  447EMI    H0C 8483   0.464   3.408   3.826  2.2970 -0.3965 -0.7130
  447EMI    H0D 8484   0.545   3.513   3.946 -1.0584  0.0732  0.8422
  447EMI    N00 8485   0.340   3.543   3.921  0.3516 -0.0991  0.1333
  447EMI    C06 8486   0.023   3.646   3.787 -0.5166  0.5029 -0.0855
  447EMI    H0F 8487  -0.034   3.718   3.843 -1.7385  1.2833 -2.1911
  447EMI    C0N 8488   0.031   3.684   3.647 -0.8344 -0.0451 -0.2414
  447EMI    H0O 8489   0.072   3.602   3.589 -0.4117 -0.2300  0.3074
  447EMI    H0P 8490  -0.064   3.707   3.602 -0.4184 -1.2812 -1.8531
  447EMI    H0Q 8491   0.091   3.767   3.613  1.9996 -2.3162 -1.2067
  447EMI    N02 8492   0.156   3.628   3.846 -0.1198 -0.6268  0.1431
  447EMI    H0E 8493  -0.037   3.556   3.794 -1.5758  1.2104  0.1812
  448EMI    C01 8494   4.323   4.333   2.671 -0.3054 -0.3583 -0.2035
  448EMI    C04 8495   4.524   4.329   2.755  0.0769  0.4802  0.5107
  448EMI    C03 8496   4.544   4.319   2.626  0.9607 -0.3532 -0.3059
  448EMI    H07 8497   4.217   4.337   2.662 -0.4354  2.7444  1.1378
  448EMI    H09 8498   4.603   4.328   2.828  0.8242 -0.6268 -0.2825
  448EMI    H08 8499   4.632   4.329   2.566  0.2242  1.9638 -1.1314
  448EMI    C05 8500   4.378   4.281   2.444 -0.4105 -0.3106  0.4485
  448EMI    H0B 8501   4.287   4.224   2.452 -0.5672 -0.3292 -1.1103
  448EMI    H0C 8502   4.357   4.372   2.390  0.0764 -1.4695 -1.8173
  448EMI    H0D 8503   4.452   4.222   2.390  0.8603  0.6857  1.0491
  448EMI    N00 8504   4.412   4.317   2.576 -0.7485 -0.3903 -0.3863
  448EMI    C06 8505   4.326   4.280   2.917 -0.3237 -0.5166  0.8944
  448EMI    H0F 8506   4.397   4.318   2.989 -0.7058 -2.0295  2.1303
  448EMI    C0N 8507   4.196   4.354   2.949 -0.0672  0.5177  0.4158
  448EMI    H0O 8508   4.178   4.449   2.901 -0.9512  0.1416 -0.0293
  448EMI    H0P 8509   4.109   4.292   2.928  0.8613 -1.2178  1.4927
  448EMI    H0Q 8510   4.181   4.374   3.054 -2.6127  3.8118 -0.3822
  448EMI    N02 8511   4.389   4.317   2.786 -0.5153  0.4958 -0.0078
  448EMI    H0E 8512   4.311   4.173   2.915 -1.3297 -0.3838 -1.0789
  449EMI    C01 8513   5.040   0.097   1.828  0.3049  0.6935 -0.0431
  449EMI    C04 8514   4.842   0.063   1.926  0.3768 -0.1505 -0.3700
  449EMI    C03 8515   4.903  -0.055   1.916 -0.1030  0.7876  0.0189
  449EMI    H07 8516   5.130   0.146   1.797  0.4809 -1.0233 -2.5421
  449EMI    H09 8517   4.741   0.080   1.956 -0.0349 -1.7948 -0.7517
  449EMI    H08 8518   4.862  -0.152   1.932  0.5772  0.3783 -0.6780
  449EMI    C05 8519   5.137  -0.129   1.854  0.0220 -0.2630  0.2762
  449EMI    H0B 8520   5.222  -0.117   1.920 -0.1114 -1.9921  0.8215
  449EMI    H0C 8521   5.093  -0.227   1.847  1.1199 -0.8117  0.7131
  449EMI    H0D 8522   5.190  -0.120   1.761  1.5730  0.2129  1.1674
  449EMI    N00 8523   5.030  -0.027   1.865 -0.2944  0.7488  0.1603
  449EMI    C06 8524   4.895   0.304   1.835 -0.0148  0.1743  0.0620
  449EMI    H0F 8525   4.820   0.328   1.908  0.4767 -1.7604  1.2700
  449EMI    C0N 8526   5.013   0.392   1.865 -0.4387  0.3335 -0.4237
  449EMI    H0O 8527   5.035   0.398   1.971  0.2530 -0.6929 -0.4924
  449EMI    H0P 8528   5.105   0.368   1.812 -0.4014 -1.3940  0.3317
  449EMI    H0Q 8529   5.003   0.490   1.821  1.9453 -0.2026 -2.4283
  449EMI    N02 8530   4.926   0.160   1.864 -0.3274  0.4528 -0.4248
  449EMI    H0E 8531   4.871   0.313   1.730  0.6424  0.8202 -0.0383
  450EMI    C01 8532   4.722   0.079   0.883  0.2366 -0.6743  0.6783
  450EMI    C04 8533   4.905   0.159   0.795 -0.2724 -0.2131  0.0097
  450EMI    C03 8534   4.808   0.153   0.702  0.6952 -0.0117  0.5182
  450EMI    H07 8535   4.653   0.063   0.963  0.7312 -2.3985  0.7943
  450EMI    H09 8536   5.002   0.201   0.786 -1.1267  1.8996  0.0513
  450EMI    H08 8537   4.808   0.189   0.601 -1.2506 -1.4208 -0.0431
  450EMI    C05 8538   4.556   0.106   0.697  0.4414  0.1806  0.1126
  450EMI    H0B 8539   4.493   0.178   0.745  0.2808 -0.1868  0.4595
  450EMI    H0C 8540   4.561   0.113   0.589  0.4934  0.2647  0.1204
  450EMI    H0D 8541   4.522   0.004   0.708  1.5490 -0.0396  1.7067
  450EMI    N00 8542   4.691   0.116   0.763  0.0678  0.4371  0.0599
  450EMI    C06 8543   4.922   0.055   1.024 -0.1974  0.1024 -0.6060
  450EMI    H0F 8544   4.867   0.026   1.112  0.1471  1.4516  0.0855
  450EMI    C0N 8545   5.023  -0.053   0.992 -0.0484 -0.2459  0.3601
  450EMI    H0O 8546   5.081  -0.087   1.077  0.8001  1.4495  0.4923
  450EMI    H0P 8547   4.971  -0.137   0.947  0.4885 -0.4273  0.0601
  450EMI    H0Q 8548   5.093  -0.019   0.916  1.9199  0.1748  2.2649
  450EMI    N02 8549   4.844   0.102   0.905 -0.2268  0.8441  0.0896
  450EMI    H0E 8550   4.972   0.145   1.058  0.0630 -0.4816  0.6268
  451EMI    C01 8551   4.626   3.154   2.836 -1.1523  0.6295  0.0734
  451EMI    C04 8552   4.731   3.007   2.970  0.6175  0.2019 -0.1455
  451EMI    C03 8553   4.773   2.992   2.846 -0.6301  0.0464  0.2166
  451EMI    H07 8554   4.575   3.244   2.806  2.6873  2.7752 -0.6646
  451EMI    H09 8555   4.750   2.951   3.059  0.4759  1.8098  0.9297
  451EMI    H08 8556   4.848   2.932   2.799 -0.4000 -1.2888  2.2001
  451EMI    C05 8557   4.743   3.106   2.624 -0.1504 -0.2006  0.2584
  451EMI    H0B 8558   4.792   3.202   2.614  2.1648 -1.3554 -0.3455
  451EMI    H0C 8559   4.813   3.033   2.586 -1.6974 -0.1001 -3.0630
  451EMI    H0D 8560   4.652   3.102   2.567  0.2369  1.4529 -0.5344
  451EMI    N00 8561   4.706   3.077   2.763  0.3721  0.4913  0.5739
  451EMI    C06 8562   4.573   3.197   3.065  0.1859  1.1442 -0.1411
  451EMI    H0F 8563   4.602   3.148   3.156  0.2942 -1.6956 -1.5984
  451EMI    C0N 8564   4.615   3.339   3.063 -0.8551 -0.4962 -0.3397
  451EMI    H0O 8565   4.589   3.380   3.159 -0.7498 -0.8030 -0.1797
  451EMI    H0P 8566   4.721   3.339   3.039 -0.7727  1.4780 -0.1159
  451EMI    H0Q 8567   4.585   3.399   2.977  1.2146  0.0384 -0.7574
  451EMI    N02 8568   4.639   3.115   2.965 -0.7490 -0.0337 -0.2233
  451EMI    H0E 8569   4.465   3.195   3.056  0.1773  3.6117 -1.5790
  452EMI    C01 8570   2.892   1.403   2.108 -0.0545  0.0258 -0.4907
  452EMI    C04 8571   2.687   1.383   2.156 -0.1135 -0.0075 -0.1131
  452EMI    C03 8572   2.740   1.470   2.242 -0.4966 -0.5294  0.0865
  452EMI    H07 8573   2.982   1.402   2.050 -2.0793  3.2505 -4.2169
  452EMI    H09 8574   2.588   1.344   2.149 -0.6547  1.3572 -0.3711
  452EMI    H08 8575   2.694   1.532   2.316 -1.9854 -0.1931 -1.0793
  452EMI    C05 8576   2.963   1.584   2.275 -0.1020  0.0926  0.7766
  452EMI    H0B 8577   2.919   1.638   2.357 -2.0041  0.2934 -0.3162
  452EMI    H0C 8578   3.050   1.531   2.311 -0.4779 -1.1060 -0.0211
  452EMI    H0D 8579   2.995   1.648   2.194  0.0573  0.7537  1.3474
  452EMI    N00 8580   2.874   1.484   2.214 -0.1560  0.3774  0.7795
  452EMI    C06 8581   2.770   1.219   1.986  0.1965  0.0500  0.3238
  452EMI    H0F 8582   2.870   1.220   1.945  0.1448  1.5466  0.1907
  452EMI    C0N 8583   2.731   1.082   2.035 -0.7387  0.5633  0.2466
  452EMI    H0O 8584   2.805   1.070   2.113 -0.8160 -0.9311  0.1285
  452EMI    H0P 8585   2.630   1.089   2.074 -0.8253  2.6179 -0.2617
  452EMI    H0Q 8586   2.749   1.006   1.960  1.5642 -0.0276  1.3126
  452EMI    N02 8587   2.790   1.327   2.087 -0.0095  0.0165  0.6656
  452EMI    H0E 8588   2.714   1.246   1.898  1.2652 -0.0118 -0.4048
  453EMI    C01 8589   1.381   2.203   4.504 -0.4462  0.3916  0.2220
  453EMI    C04 8590   1.462   2.386   4.596 -0.2432  0.3669  0.0474
  453EMI    C03 8591   1.401   2.423   4.481 -0.0490 -0.5816 -0.1829
  453EMI    H07 8592   1.340   2.106   4.488 -1.4464  0.3804  2.4751
  453EMI    H09 8593   1.527   2.445   4.658 -1.0405  1.5005 -0.1670
  453EMI    H08 8594   1.398   2.520   4.435  1.2590 -0.8731 -0.9231
  453EMI    C05 8595   1.279   2.307   4.304 -0.2725  0.0543  0.0999
  453EMI    H0B 8596   1.342   2.321   4.218  0.5831 -1.7269  0.3859
  453EMI    H0C 8597   1.230   2.212   4.287 -0.9369  0.3744  0.2139
  453EMI    H0D 8598   1.203   2.383   4.301 -1.1079 -0.7766 -0.1231
  453EMI    N00 8599   1.360   2.306   4.427 -0.4238 -0.1683 -0.0222
  453EMI    C06 8600   1.488   2.161   4.724 -0.2754  0.0313  0.5120
  453EMI    H0F 8601   1.532   2.071   4.683 -0.3195  0.0094  0.5120
  453EMI    C0N 8602   1.602   2.223   4.801  0.1790 -0.6969 -0.1421
  453EMI    H0O 8603   1.640   2.167   4.886 -1.8826  1.5108  2.3916
  453EMI    H0P 8604   1.687   2.235   4.735  1.7213 -0.7014  1.7319
  453EMI    H0Q 8605   1.586   2.322   4.842  0.5914 -0.3610 -0.7737
  453EMI    N02 8606   1.448   2.248   4.610  0.1269 -0.3006  0.7406
  453EMI    H0E 8607   1.402   2.132   4.782 -0.1634 -2.3082 -0.3724
  454EMI    C01 8608   0.963   3.229   3.706  0.3263 -0.6148  0.1589
  454EMI    C04 8609   0.744   3.237   3.710  0.0935 -0.2386 -0.1472
  454EMI    C03 8610   0.790   3.161   3.813 -0.5076  0.2396 -0.1591
  454EMI    H07 8611   1.064   3.237   3.671 -0.1104  0.8908 -0.8685
  454EMI    H09 8612   0.647   3.277   3.692  0.9093  1.6114 -0.6002
  454EMI    H08 8613   0.730   3.115   3.888 -1.4184 -1.9098 -2.1056
  454EMI    C05 8614   1.004   3.081   3.906 -0.5001  0.2765 -0.8308
  454EMI    H0B 8615   1.091   3.047   3.851 -0.0879 -2.6657  1.3861
  454EMI    H0C 8616   1.032   3.152   3.982  1.0690 -0.6130 -0.5351
  454EMI    H0D 8617   0.956   2.990   3.939 -1.4507  1.1537  0.2896
  454EMI    N00 8618   0.925   3.153   3.808  0.0934  0.2154 -0.3218
  454EMI    C06 8619   0.850   3.394   3.544 -0.5823 -1.0022  0.0652
  454EMI    H0F 8620   0.760   3.447   3.574  0.8908  0.0349  3.0675
  454EMI    C0N 8621   0.964   3.491   3.549 -0.2399  0.2946  0.2781
  454EMI    H0O 8622   0.964   3.586   3.497  1.2080 -0.1166 -0.5323
  454EMI    H0P 8623   0.987   3.514   3.652 -2.3556  2.8096  0.2854
  454EMI    H0Q 8624   1.037   3.425   3.503  1.4231  1.3509  1.2741
  454EMI    N02 8625   0.854   3.289   3.646  0.0620  0.4312  0.2648
  454EMI    H0E 8626   0.835   3.355   3.444  3.2806  0.6274 -1.3076
  455EMI    C01 8627   3.735   2.663   1.352  0.7460  0.9294 -0.3450
  455EMI    C04 8628   3.769   2.851   1.252 -0.3316  0.4374  0.1974
  455EMI    C03 8629   3.674   2.784   1.186  0.1366  0.0072  0.4440
  455EMI    H07 8630   3.747   2.590   1.429  1.3282 -0.5214 -1.7314
  455EMI    H09 8631   3.793   2.955   1.246 -1.1594  0.6110 -0.1751
  455EMI    H08 8632   3.603   2.810   1.111 -0.1624 -0.2504  0.6331
  455EMI    C05 8633   3.597   2.539   1.185  0.8171 -0.4185 -0.8420
  455EMI    H0B 8634   3.493   2.562   1.172  1.0034 -0.1994 -2.0590
  455EMI    H0C 8635   3.645   2.518   1.091  2.3626  1.2953 -0.4988
  455EMI    H0D 8636   3.610   2.455   1.251  1.0627  0.7645  0.6862
  455EMI    N00 8637   3.667   2.657   1.240  0.0124 -0.0828  0.1957
  455EMI    C06 8638   3.883   2.838   1.474 -0.2716  0.3886 -0.6986
  455EMI    H0F 8639   3.845   2.933   1.509 -0.2797  0.4808 -0.9609
  455EMI    C0N 8640   3.874   2.766   1.604  0.4511  0.3497 -0.1684
  455EMI    H0O 8641   3.769   2.751   1.628  0.3653  1.1019 -0.0612
  455EMI    H0P 8642   3.925   2.670   1.599 -2.0960 -1.0974 -0.1955
  455EMI    H0Q 8643   3.924   2.824   1.680  1.7809 -0.1185 -0.6672
  455EMI    N02 8644   3.806   2.781   1.362  0.1667  0.4712  0.2781
  455EMI    H0E 8645   3.986   2.846   1.442 -0.3223  1.0039 -0.7111
  456EMI    C01 8646   2.951   2.873   1.633 -0.4890  0.7130  0.1538
  456EMI    C04 8647   2.873   2.696   1.733  0.0223  0.1634 -0.2576
  456EMI    C03 8648   2.767   2.767   1.685 -0.5913 -0.4340  0.2687
  456EMI    H07 8649   3.015   2.941   1.581 -1.1153  0.3381 -1.1599
  456EMI    H09 8650   2.867   2.600   1.779  0.6101 -1.0155 -2.4845
  456EMI    H08 8651   2.663   2.745   1.690 -0.5270 -1.5433 -2.0047
  456EMI    C05 8652   2.746   2.984   1.548  0.0487 -0.2814  0.1185
  456EMI    H0B 8653   2.810   3.070   1.561 -0.5828  0.1684  0.2938
  456EMI    H0C 8654   2.743   2.961   1.442 -0.7923  0.0366  0.0660
  456EMI    H0D 8655   2.654   3.007   1.600  0.2013 -0.9678  0.7084
  456EMI    N00 8656   2.821   2.879   1.622 -0.1632  0.0135  0.6182
  456EMI    C06 8657   3.119   2.693   1.677 -0.2461 -0.2001 -0.9599
  456EMI    H0F 8658   3.151   2.653   1.772 -1.9528  0.4244 -0.0855
  456EMI    C0N 8659   3.127   2.590   1.566  0.6395  0.0630 -0.4511
  456EMI    H0O 8660   3.086   2.497   1.604 -0.4254  1.1780  1.2792
  456EMI    H0P 8661   3.083   2.623   1.473  0.1065 -0.3184 -0.3404
  456EMI    H0Q 8662   3.229   2.564   1.541  0.5776 -0.2164 -0.4181
  456EMI    N02 8663   2.992   2.756   1.688  0.6868  0.5361 -0.0444
  456EMI    H0E 8664   3.185   2.777   1.660 -1.1455  1.1546  1.6796
  457EMI    C01 8665   2.913   4.480   1.111 -0.0822  0.1669 -0.4045
  457EMI    C04 8666   3.003   4.680   1.149  0.0087  0.3936 -0.3171
  457EMI    C03 8667   3.077   4.618   1.050  0.6153 -0.3816 -0.4395
  457EMI    H07 8668   2.846   4.398   1.124  0.4515 -0.2436 -0.2152
  457EMI    H09 8669   3.016   4.776   1.193  1.3616 -0.5234  1.4168
  457EMI    H08 8670   3.170   4.650   1.008  0.2037  0.2805 -0.8498
  457EMI    C05 8671   3.102   4.380   0.976 -0.4025  0.3103 -0.0739
  457EMI    H0B 8672   3.025   4.320   0.929 -0.1901 -0.3355  0.3820
  457EMI    H0C 8673   3.175   4.425   0.910  1.1468 -0.9607  0.7056
  457EMI    H0D 8674   3.158   4.312   1.038 -1.3475 -0.7779 -0.3641
  457EMI    N00 8675   3.030   4.485   1.049  0.4503 -0.1555  1.2182
  457EMI    C06 8676   2.764   4.643   1.225  0.7629  0.2934 -0.5113
  457EMI    H0F 8677   2.720   4.734   1.189  0.1608  0.7104  1.1897
  457EMI    C0N 8678   2.662   4.529   1.253  0.5429 -0.6081  0.5181
  457EMI    H0O 8679   2.614   4.484   1.167 -2.1813  0.3097  1.4557
  457EMI    H0P 8680   2.715   4.445   1.296 -0.2325 -1.8631 -0.9284
  457EMI    H0Q 8681   2.596   4.557   1.334 -0.7754  0.7328 -0.9421
  457EMI    N02 8682   2.889   4.596   1.160 -0.0842  0.6108  0.1048
  457EMI    H0E 8683   2.800   4.665   1.324  2.4689  0.1965 -1.0695
  458EMI    C01 8684   1.834   3.285   4.190  0.0542  0.1377  0.0362
  458EMI    C04 8685   1.702   3.455   4.138 -0.4071 -0.2325  0.2293
  458EMI    C03 8686   1.642   3.342   4.111 -0.0200  0.0219  0.1668
  458EMI    H07 8687   1.918   3.225   4.220 -0.4201 -0.2260  0.6647
  458EMI    H09 8688   1.664   3.554   4.122  2.8636  1.2599  0.6578
  458EMI    H08 8689   1.554   3.341   4.050  0.9535  2.2151 -1.4043
  458EMI    C05 8690   1.692   3.091   4.119  1.0617  0.5412 -0.2359
  458EMI    H0B 8691   1.752   3.016   4.168 -0.3935  0.1432  1.0267
  458EMI    H0C 8692   1.590   3.072   4.151  1.8478 -2.3946  0.9247
  458EMI    H0D 8693   1.692   3.063   4.015 -1.5420 -2.0944  0.3096
  458EMI    N00 8694   1.723   3.234   4.145  0.3762  0.2168  0.2940
  458EMI    C06 8695   1.929   3.513   4.229  0.3807 -0.4614 -0.3960
  458EMI    H0F 8696   1.998   3.467   4.298  0.8468  0.9688  0.1143
  458EMI    C0N 8697   2.005   3.580   4.117  0.6727  0.7313  0.2827
  458EMI    H0O 8698   2.077   3.656   4.144  0.3117  0.8602  0.9047
  458EMI    H0P 8699   2.044   3.506   4.048 -0.4676 -0.4273  0.8149
  458EMI    H0Q 8700   1.933   3.617   4.045 -0.2648 -1.2145  0.1348
  458EMI    N02 8701   1.828   3.420   4.185 -1.0416  0.0357  0.3472
  458EMI    H0E 8702   1.881   3.584   4.295  1.4582 -0.2638  0.1985
  459EMI    C01 8703   1.192   1.781   2.339 -0.6132 -0.6956 -0.3633
  459EMI    C04 8704   1.400   1.848   2.366  0.4393  0.0797 -0.1788
  459EMI    C03 8705   1.393   1.782   2.249  0.5405 -0.2899 -0.3382
  459EMI    H07 8706   1.087   1.774   2.353 -1.0894 -0.0386 -3.1851
  459EMI    H09 8707   1.478   1.896   2.422  0.7913 -1.0039  0.2911
  459EMI    H08 8708   1.472   1.766   2.178  0.5848  2.1187 -0.9002
  459EMI    C05 8709   1.207   1.690   2.109 -0.0920  0.0671  0.4715
  459EMI    H0B 8710   1.235   1.586   2.101  0.3685  0.0969  1.6205
  459EMI    H0C 8711   1.100   1.707   2.110 -0.0869  0.2931 -0.7734
  459EMI    H0D 8712   1.246   1.750   2.028 -0.0022 -1.2245 -0.4769
  459EMI    N00 8713   1.259   1.749   2.233 -0.0608 -0.2465 -0.0535
  459EMI    C06 8714   1.258   1.844   2.574  0.4211 -0.5951 -0.5303
  459EMI    H0F 8715   1.155   1.817   2.589  0.2074  0.4782  0.0489
  459EMI    C0N 8716   1.335   1.746   2.650 -0.3156 -0.2121  1.0702
  459EMI    H0O 8717   1.301   1.645   2.630 -0.0448 -0.1053  0.0113
  459EMI    H0P 8718   1.443   1.753   2.657 -0.1942 -1.3333  0.5007
  459EMI    H0Q 8719   1.298   1.751   2.752 -2.3181 -0.3365  0.4042
  459EMI    N02 8720   1.278   1.830   2.430  0.2002 -0.4808  0.2010
  459EMI    H0E 8721   1.283   1.945   2.602  0.9520  0.1925 -3.5450
  460EMI    C01 8722   2.835   5.033   0.093 -0.0259 -0.4969 -0.0399
  460EMI    C04 8723   2.969   5.148   0.230 -0.3084  0.3174  0.6251
  460EMI    C03 8724   3.015   5.026   0.207 -0.1541 -0.0198 -0.5502
  460EMI    H07 8725   2.759   5.014   0.021 -0.2396 -0.9441  0.2980
  460EMI    H09 8726   3.015   5.234   0.274  2.7980  0.0819 -1.7717
  460EMI    H08 8727   3.102   4.981   0.251 -1.2262 -0.5735  1.1270
  460EMI    C05 8728   2.942   4.818   0.081 -0.5160  0.5557 -0.4975
  460EMI    H0B 8729   2.872   4.805  -0.001 -0.5092 -1.9772 -0.1831
  460EMI    H0C 8730   3.046   4.809   0.056 -0.1922 -0.3729  1.1030
  460EMI    H0D 8731   2.926   4.753   0.166  0.4032  0.0129 -0.7289
  460EMI    N00 8732   2.933   4.952   0.121 -0.1399  0.3527 -0.1166
  460EMI    C06 8733   2.753   5.262   0.149  0.1812 -1.2124  0.3864
  460EMI    H0F 8734   2.679   5.243   0.225  0.7500  0.5864  1.4404
  460EMI    C0N 8735   2.809   5.402   0.178  0.5313  0.7397 -0.4415
  460EMI    H0O 8736   2.730   5.476   0.186 -0.2539 -0.2416  1.3643
  460EMI    H0P 8737   2.874   5.396   0.264  0.7218 -3.8071 -0.6561
  460EMI    H0Q 8738   2.865   5.434   0.090  0.1731 -0.8395 -1.2845
  460EMI    N02 8739   2.850   5.151   0.161  0.7768 -0.0122 -0.1450
  460EMI    H0E 8740   2.719   5.276   0.048  2.0515 -1.6947 -0.3724
  461EMI    C01 8741   3.532   3.110   0.436 -0.0424 -0.0147 -0.3255
  461EMI    C04 8742   3.736   3.063   0.380 -0.4286 -0.0302 -0.1540
  461EMI    C03 8743   3.713   3.186   0.352  0.0907 -0.3021  0.7198
  461EMI    H07 8744   3.434   3.100   0.477 -0.1893 -0.2721 -0.7284
  461EMI    H09 8745   3.819   2.997   0.367 -2.7087 -3.2495  0.5384
  461EMI    H08 8746   3.780   3.254   0.305  0.2670 -0.8774  0.1263
  461EMI    C05 8747   3.524   3.349   0.368 -0.2063  0.4640  0.3285
  461EMI    H0B 8748   3.567   3.399   0.283  1.6109  0.2006  1.0482
  461EMI    H0C 8749   3.417   3.345   0.354 -0.0563  2.6551 -2.2150
  461EMI    H0D 8750   3.562   3.406   0.452  2.2379  1.0775 -1.1118
  461EMI    N00 8751   3.585   3.219   0.393  0.5453 -0.7897  0.2289
  461EMI    C06 8752   3.622   2.895   0.532  0.0950  0.2250  0.2983
  461EMI    H0F 8753   3.724   2.876   0.563  0.3830  2.1420  0.6560
  461EMI    C0N 8754   3.539   2.924   0.657  0.8115  0.0062 -0.4892
  461EMI    H0O 8755   3.445   2.966   0.626  0.6972  0.8871  0.9465
  461EMI    H0P 8756   3.529   2.830   0.710 -0.6352  0.9666  1.0431
  461EMI    H0Q 8757   3.590   3.000   0.716  2.7903 -1.8452  0.3220
  461EMI    N02 8758   3.623   3.019   0.443 -0.2839  0.1988 -0.2309
  461EMI    H0E 8759   3.580   2.806   0.487 -0.3712 -0.7063  2.4168
  462EMI    C01 8760   1.026   0.890   0.368 -0.9511  0.6429 -0.0914
  462EMI    C04 8761   1.236   0.946   0.318  0.8384  0.7419 -0.2600
  462EMI    C03 8762   1.213   0.979   0.449  0.6813  0.0036  0.0138
  462EMI    H07 8763   0.930   0.846   0.356 -1.1210  1.3325 -1.5361
  462EMI    H09 8764   1.324   0.954   0.258  2.6378 -0.8363  2.0056
  462EMI    H08 8765   1.279   1.031   0.515 -0.7637 -1.1606  2.5239
  462EMI    C05 8766   1.017   0.944   0.600 -0.2026  0.7870 -0.1601
  462EMI    H0B 8767   0.917   0.911   0.576  0.6894 -0.8839 -1.8990
  462EMI    H0C 8768   1.067   0.877   0.668 -3.8512 -0.4817  1.4906
  462EMI    H0D 8769   1.028   1.045   0.638  2.1612  0.0519  1.3032
  462EMI    N00 8770   1.078   0.948   0.472  0.1005  0.1507 -0.5724
  462EMI    C06 8771   1.084   0.883   0.132  0.0169  0.1340  0.0480
  462EMI    H0F 8772   0.982   0.919   0.131  0.2992  0.9435 -0.6630
  462EMI    C0N 8773   1.168   0.963   0.042 -0.2409 -0.3224  0.4153
  462EMI    H0O 8774   1.122   0.956  -0.056 -1.4299  1.9187  0.7678
  462EMI    H0P 8775   1.179   1.066   0.074 -0.8955 -0.4026  0.9284
  462EMI    H0Q 8776   1.266   0.919   0.026 -0.3934 -0.9042  1.0267
  462EMI    N02 8777   1.116   0.901   0.271 -0.2985  0.2530 -0.1463
  462EMI    H0E 8778   1.094   0.781   0.098  3.7928  1.4323 -3.4138
  463EMI    C01 8779   1.442   2.910   4.675 -0.2363 -0.0381 -0.3780
  463EMI    C04 8780   1.445   2.876   4.464  0.1920  0.4509  0.2944
  463EMI    C03 8781   1.563   2.921   4.499  0.0873 -0.1111  0.0228
  463EMI    H07 8782   1.403   2.917   4.774 -1.0987  0.4471 -0.7401
  463EMI    H09 8783   1.405   2.853   4.368 -1.8261 -1.2621  1.4584
  463EMI    H08 8784   1.645   2.929   4.430 -0.1714 -1.9721 -0.5398
  463EMI    C05 8785   1.682   2.979   4.719 -0.3132 -0.1597 -0.3385
  463EMI    H0B 8786   1.689   2.923   4.810  2.6607 -1.8865 -1.4840
  463EMI    H0C 8787   1.768   2.960   4.658 -0.0435  2.2477 -0.8300
  463EMI    H0D 8788   1.681   3.086   4.735 -2.8692  0.2966 -2.6069
  463EMI    N00 8789   1.564   2.944   4.635  0.3775  0.1198 -0.4022
  463EMI    C06 8790   1.227   2.832   4.580  0.0748 -0.1730 -0.3656
  463EMI    H0F 8791   1.181   2.909   4.521  0.1944  1.0301  1.0556
  463EMI    C0N 8792   1.190   2.692   4.526  0.1249  0.3446  0.2518
  463EMI    H0O 8793   1.217   2.690   4.421  1.0131  3.6232  0.2935
  463EMI    H0P 8794   1.242   2.608   4.572 -0.3985 -1.1418 -1.7500
  463EMI    H0Q 8795   1.085   2.669   4.539  0.4765 -1.5326  0.0950
  463EMI    N02 8796   1.368   2.871   4.577  0.2618 -0.4500  0.1575
  463EMI    H0E 8797   1.195   2.841   4.683  0.4716 -0.3082 -0.2298
  464EMI    C01 8798   4.584   5.101   1.552  0.3090 -0.8850 -0.6566
  464EMI    C04 8799   4.545   4.904   1.478  0.0021 -0.8295  0.5511
  464EMI    C03 8800   4.520   4.990   1.378 -0.4473 -0.0426  0.3108
  464EMI    H07 8801   4.583   5.178   1.626 -3.6536  0.8120 -2.2162
  464EMI    H09 8802   4.522   4.800   1.489 -0.5233 -0.6755  0.9611
  464EMI    H08 8803   4.477   4.980   1.281  0.6892  1.1894 -0.3488
  464EMI    C05 8804   4.561   5.251   1.358 -0.0244  0.6577 -0.3886
  464EMI    H0B 8805   4.650   5.275   1.301  0.0231  2.0608  0.2220
  464EMI    H0C 8806   4.472   5.282   1.305 -0.5254  0.7777  0.5085
  464EMI    H0D 8807   4.569   5.312   1.447  0.2399 -0.3525  0.2916
  464EMI    N00 8808   4.557   5.119   1.427  0.3140  0.4526 -0.0200
  464EMI    C06 8809   4.643   4.918   1.725  0.3925  0.0065 -0.1998
  464EMI    H0F 8810   4.607   4.974   1.810 -1.4646  0.4131 -1.1895
  464EMI    C0N 8811   4.588   4.777   1.748  0.4580  0.1591 -0.2918
  464EMI    H0O 8812   4.611   4.716   1.834 -2.2513 -1.8709 -0.8714
  464EMI    H0P 8813   4.480   4.776   1.746  0.4571  0.1205 -0.2163
  464EMI    H0Q 8814   4.628   4.724   1.662  1.1015 -0.0530  0.1360
  464EMI    N02 8815   4.595   4.976   1.592  0.2450 -0.2851  0.8503
  464EMI    H0E 8816   4.750   4.914   1.717  0.3785 -0.2723 -0.2759
  465EMI    C01 8817   3.224   2.876   1.124  0.3660  0.5121 -0.0153
  465EMI    C04 8818   3.392   3.008   1.139 -0.9569 -0.2710 -0.0074
  465EMI    C03 8819   3.370   2.992   1.012  0.3143  0.8819 -0.3483
  465EMI    H07 8820   3.136   2.821   1.149  0.7598 -0.4764 -0.7439
  465EMI    H09 8821   3.465   3.077   1.176 -2.7300  1.5903  0.2921
  465EMI    H08 8822   3.421   3.034   0.927 -1.3193  0.2190 -1.7110
  465EMI    C05 8823   3.196   2.863   0.878 -0.0862  0.5900  0.7923
  465EMI    H0B 8824   3.160   2.762   0.894 -1.8619  1.0731  0.1207
  465EMI    H0C 8825   3.115   2.932   0.860 -0.8358 -0.2878  0.7182
  465EMI    H0D 8826   3.262   2.872   0.793 -0.5047  0.9806  0.5031
  465EMI    N00 8827   3.260   2.905   1.004  0.2211  0.0036  0.3290
  465EMI    C06 8828   3.301   2.917   1.363  0.2246  0.1356  1.0382
  465EMI    H0F 8829   3.204   2.874   1.385 -0.6770  0.7182 -1.4053
  465EMI    C0N 8830   3.415   2.839   1.422  0.1786 -0.0993  0.3998
  465EMI    H0O 8831   3.446   2.756   1.360 -0.3204 -0.6819  0.9138
  465EMI    H0P 8832   3.501   2.903   1.439 -1.3007  2.9201 -2.3863
  465EMI    H0Q 8833   3.382   2.787   1.511  0.0183  0.0334  0.4200
  465EMI    N02 8834   3.306   2.927   1.213 -0.8971  0.3285  0.1463
  465EMI    H0E 8835   3.293   3.018   1.402  0.4409  0.3825  0.4507
  466EMI    C01 8836   1.076   2.776   0.514 -0.0695 -0.1620 -0.2286
  466EMI    C04 8837   0.972   2.682   0.672  0.1609 -0.0822 -0.2744
  466EMI    C03 8838   0.910   2.637   0.559  0.7387 -0.5303  0.4304
  466EMI    H07 8839   1.139   2.840   0.456  0.0775  0.0629  0.1704
  466EMI    H09 8840   0.937   2.657   0.770 -0.8290  0.5564 -0.4511
  466EMI    H08 8841   0.820   2.583   0.542  1.9890 -3.4711  2.2829
  466EMI    C05 8842   0.965   2.679   0.317 -0.0505  0.5038 -0.4400
  466EMI    H0B 8843   0.979   2.573   0.305  0.1861  0.3234  1.1665
  466EMI    H0C 8844   0.864   2.706   0.291  0.0855  0.0048 -1.5089
  466EMI    H0D 8845   1.037   2.722   0.249 -0.0886 -0.1224 -0.8751
  466EMI    N00 8846   0.983   2.697   0.458  0.2489 -1.0110  0.0990
  466EMI    C06 8847   1.173   2.819   0.741 -0.5955 -0.0178  0.3124
  466EMI    H0F 8848   1.231   2.888   0.682 -0.6721  0.5055  0.8447
  466EMI    C0N 8849   1.084   2.894   0.845 -0.1544 -0.1459  0.1988
  466EMI    H0O 8850   1.044   2.832   0.924  1.5504  0.4032  1.5545
  466EMI    H0P 8851   1.146   2.969   0.894 -1.6407  2.9057 -2.2343
  466EMI    H0Q 8852   1.001   2.940   0.794 -0.5236  0.0097  0.9265
  466EMI    N02 8853   1.076   2.761   0.642 -0.1957 -0.0956  0.2126
  466EMI    H0E 8854   1.229   2.738   0.785 -0.4727  1.1530  2.4392
  467EMI    C01 8855   0.391   2.382   0.466  0.0279  0.2839 -0.3214
  467EMI    C04 8856   0.465   2.202   0.375 -0.1400 -0.0870  0.0062
  467EMI    C03 8857   0.545   2.222   0.480  0.3628  0.0492  0.4709
  467EMI    H07 8858   0.323   2.463   0.481  1.0275  0.6840  2.7791
  467EMI    H09 8859   0.475   2.118   0.310  0.4420  0.0032 -0.0256
  467EMI    H08 8860   0.629   2.167   0.514  0.2377 -1.1975 -1.1387
  467EMI    C05 8861   0.550   2.399   0.657  0.3981 -0.1776 -0.3997
  467EMI    H0B 8862   0.496   2.489   0.679  1.1458  0.1282  0.2274
  467EMI    H0C 8863   0.562   2.341   0.747  0.1042  2.3431  1.3600
  467EMI    H0D 8864   0.647   2.434   0.625  0.9359 -0.5296  0.7836
  467EMI    N00 8865   0.495   2.337   0.536  0.3542 -0.6541  0.3050
  467EMI    C06 8866   0.270   2.324   0.264 -0.2413  0.0585  0.2436
  467EMI    H0F 8867   0.320   2.305   0.170 -1.0841 -0.3463 -0.1322
  467EMI    C0N 8868   0.162   2.218   0.304 -1.0078  0.4277 -1.1069
  467EMI    H0O 8869   0.075   2.233   0.241 -2.0703 -2.0553 -0.3495
  467EMI    H0P 8870   0.209   2.126   0.273 -0.4215  0.1781  0.4430
  467EMI    H0Q 8871   0.143   2.213   0.410 -0.5570  2.1383 -0.9239
  467EMI    N02 8872   0.375   2.306   0.362 -0.1626  0.2509 -0.2369
  467EMI    H0E 8873   0.237   2.427   0.270 -0.6893 -0.1334  1.4119
  468EMI    C01 8874   1.288   0.153   1.816 -0.3662 -0.8129 -0.8982
  468EMI    C04 8875   1.084   0.096   1.788  0.9643 -0.0472  0.7158
  468EMI    C03 8876   1.079   0.226   1.785  0.5349  0.1026 -0.0113
  468EMI    H07 8877   1.394   0.161   1.828 -0.4580 -1.2684  0.3974
  468EMI    H09 8878   1.005   0.027   1.771  0.5793  0.7776 -1.0265
  468EMI    H08 8879   1.002   0.298   1.769  0.7470  0.0735 -1.3090
  468EMI    C05 8880   1.260   0.396   1.843 -0.6072 -0.5086 -0.2410
  468EMI    H0B 8881   1.336   0.417   1.769  0.4561 -1.2467  0.6027
  468EMI    H0C 8882   1.179   0.466   1.849 -0.2769 -0.0590 -0.9095
  468EMI    H0D 8883   1.305   0.396   1.941 -1.5873  1.1229  0.2233
  468EMI    N00 8884   1.206   0.258   1.815 -0.1682 -0.8133 -0.5023
  468EMI    C06 8885   1.265  -0.086   1.817 -1.1357 -0.3295  0.0739
  468EMI    H0F 8886   1.190  -0.152   1.776 -0.4322 -0.9190 -0.2783
  468EMI    C0N 8887   1.395  -0.101   1.740 -0.2519 -0.0499 -0.3851
  468EMI    H0O 8888   1.431  -0.203   1.739  0.6754  0.2655 -0.1257
  468EMI    H0P 8889   1.375  -0.081   1.636  0.1044  0.3226 -0.3879
  468EMI    H0Q 8890   1.476  -0.035   1.771  0.6942 -0.2819 -2.2152
  468EMI    N02 8891   1.215   0.049   1.812 -0.0622  0.3983 -0.0402
  468EMI    H0E 8892   1.278  -0.128   1.916 -0.0257  0.4137  0.2624
  469EMI    C01 8893   2.325   1.180   0.079  0.3985  0.0339  0.8278
  469EMI    C04 8894   2.175   1.231  -0.068 -0.2135 -0.1500  0.0552
  469EMI    C03 8895   2.293   1.231  -0.136  0.7848 -0.2979 -1.0778
  469EMI    H07 8896   2.365   1.141   0.170  0.2536 -2.6367 -0.1511
  469EMI    H09 8897   2.079   1.270  -0.097 -0.8063 -1.3062  0.4271
  469EMI    H08 8898   2.307   1.271  -0.234 -2.7833 -1.6724 -2.3286
  469EMI    C05 8899   2.535   1.208  -0.053 -0.6451  0.3164  0.1076
  469EMI    H0B 8900   2.592   1.189   0.037  0.4158  3.0970  0.1145
  469EMI    H0C 8901   2.565   1.132  -0.123  0.2720  0.5413  0.2433
  469EMI    H0D 8902   2.576   1.304  -0.083  0.0600  0.1626  0.5641
  469EMI    N00 8903   2.391   1.212  -0.032  0.5602  0.3477 -0.1094
  469EMI    C06 8904   2.086   1.160   0.150  0.4289  0.6907 -0.1949
  469EMI    H0F 8905   2.037   1.253   0.173  1.6017  1.3937 -0.4508
  469EMI    C0N 8906   1.977   1.069   0.099 -0.8677 -0.2440  0.5647
  469EMI    H0O 8907   2.021   1.010   0.019 -2.3058  0.5019 -0.8213
  469EMI    H0P 8908   1.935   1.006   0.176 -3.2461 -0.5069 -0.8451
  469EMI    H0Q 8909   1.894   1.123   0.055 -0.0838 -1.4125 -2.6404
  469EMI    N02 8910   2.194   1.193   0.063 -0.3992  0.0353  0.6020
  469EMI    H0E 8911   2.129   1.111   0.236 -0.7154 -0.7572 -0.4134
  470EMI    C01 8912   2.385   4.180   2.635 -0.4908 -0.1364  0.4886
  470EMI    C04 8913   2.263   4.274   2.476  0.2341 -0.0070  0.8146
  470EMI    C03 8914   2.269   4.353   2.584 -0.4962  0.0944  0.1319
  470EMI    H07 8915   2.445   4.110   2.690 -0.4700  0.7064  1.5632
  470EMI    H09 8916   2.212   4.285   2.383 -0.1740  0.0504  1.0399
  470EMI    H08 8917   2.227   4.451   2.594  0.1630  0.2399  1.8536
  470EMI    C05 8918   2.381   4.364   2.807 -0.4131 -0.0030  0.5020
  470EMI    H0B 8919   2.404   4.296   2.888 -1.8017 -0.6903  0.3502
  470EMI    H0C 8920   2.466   4.421   2.773  0.1213 -1.5534 -0.9192
  470EMI    H0D 8921   2.294   4.417   2.840 -0.1782 -0.2582  1.5683
  470EMI    N00 8922   2.336   4.291   2.684  0.1966 -0.4485 -0.6523
  470EMI    C06 8923   2.337   4.034   2.429 -0.3566  0.4371 -0.3404
  470EMI    H0F 8924   2.334   3.947   2.493 -0.5894  0.1944 -0.6761
  470EMI    C0N 8925   2.208   4.014   2.351 -0.8781 -0.2018 -0.2651
  470EMI    H0O 8926   2.199   3.914   2.312 -1.9497 -0.0187 -0.4986
  470EMI    H0P 8927   2.130   4.034   2.424 -0.5164  0.1778  0.0246
  470EMI    H0Q 8928   2.198   4.083   2.268 -0.3007  0.3100  0.0837
  470EMI    N02 8929   2.335   4.156   2.512 -0.0632  0.0178 -0.0247
  470EMI    H0E 8930   2.418   4.021   2.358  0.1349  0.3525  0.2268
  471EMI    C01 8931   3.963   3.110   4.630 -0.3578 -0.0205 -0.9674
  471EMI    C04 8932   3.802   3.065   4.499  0.1138  0.0927 -0.0662
  471EMI    C03 8933   3.913   3.060   4.427  0.5565 -0.0685 -0.2046
  471EMI    H07 8934   4.019   3.148   4.713 -0.1706 -0.2357 -0.9957
  471EMI    H09 8935   3.701   3.038   4.477  0.1357  0.5962 -0.8091
  471EMI    H08 8936   3.945   3.027   4.330  3.3339  0.3712  0.4811
  471EMI    C05 8937   4.154   3.119   4.478 -1.2186  0.3235  0.1721
  471EMI    H0B 8938   4.183   3.057   4.395  0.7394  1.1229  0.2017
  471EMI    H0C 8939   4.182   3.219   4.446 -0.7177  0.3757  0.7652
  471EMI    H0D 8940   4.219   3.107   4.563 -0.0067 -1.8317 -1.0019
  471EMI    N00 8941   4.014   3.104   4.509  0.4964  0.0900 -0.3774
  471EMI    C06 8942   3.740   3.147   4.727 -0.2903 -0.1835 -0.0486
  471EMI    H0F 8943   3.687   3.235   4.693 -2.3415 -1.0909  0.6115
  471EMI    C0N 8944   3.631   3.046   4.754  0.2968  0.3519  0.0510
  471EMI    H0O 8945   3.557   3.034   4.675  0.5892  0.0254 -0.1768
  471EMI    H0P 8946   3.662   2.948   4.786 -2.1156 -0.5620 -0.2248
  471EMI    H0Q 8947   3.565   3.076   4.835  0.5436 -1.3930  0.9417
  471EMI    N02 8948   3.838   3.110   4.622 -0.1392  0.6057  0.4839
  471EMI    H0E 8949   3.788   3.181   4.818  0.8759  2.8311 -1.6494
  472EMI    C01 8950   4.885   3.224   1.256 -0.4620 -0.0184 -0.3070
  472EMI    C04 8951   4.754   3.197   1.085 -0.0848 -0.1789 -0.3702
  472EMI    C03 8952   4.732   3.320   1.130  0.1681  0.0467  0.1234
  472EMI    H07 8953   4.968   3.217   1.322 -0.8825  4.7164  1.1313
  472EMI    H09 8954   4.703   3.149   1.004  0.4480  0.2224 -0.9489
  472EMI    H08 8955   4.660   3.388   1.090  0.9888 -0.3356 -2.1221
  472EMI    C05 8956   4.836   3.463   1.308  0.0220  0.1607 -0.2592
  472EMI    H0B 8957   4.852   3.541   1.235 -1.2508  0.3454 -0.3507
  472EMI    H0C 8958   4.745   3.496   1.356  0.3419  3.2678 -1.5030
  472EMI    H0D 8959   4.911   3.450   1.385 -1.2011 -0.4681  0.8503
  472EMI    N00 8960   4.816   3.337   1.239  0.3253  0.1027 -0.5352
  472EMI    C06 8961   4.933   3.028   1.110 -0.1589 -0.1928  0.5846
  472EMI    H0F 8962   5.037   3.058   1.115 -0.2972  0.1427  1.9732
  472EMI    C0N 8963   4.916   2.900   1.192  0.2684  0.4534  0.6502
  472EMI    H0O 8964   4.878   2.924   1.291  0.7876 -0.0197  0.9714
  472EMI    H0P 8965   4.843   2.839   1.141  1.2704  0.8405 -1.3244
  472EMI    H0Q 8966   5.005   2.840   1.203 -0.4362 -0.9119 -0.7477
  472EMI    N02 8967   4.859   3.149   1.150  0.0346  0.4047  0.0423
  472EMI    H0E 8968   4.935   2.997   1.007 -1.3435  0.2245  0.4304
  473EMI    C01 8969   4.123   0.229   0.880  0.0573 -0.8669  0.0251
  473EMI    C04 8970   4.154   0.446   0.866  0.1201 -0.0968  0.2808
  473EMI    C03 8971   4.125   0.399   0.742 -0.0797  0.1770 -0.2874
  473EMI    H07 8972   4.123   0.131   0.921  2.2185 -0.6789  0.5733
  473EMI    H09 8973   4.179   0.543   0.903 -0.3544  0.7532 -1.5213
  473EMI    H08 8974   4.110   0.461   0.657 -1.0553 -0.2565 -0.4458
  473EMI    C05 8975   4.081   0.186   0.634  0.9428  0.1950 -0.2198
  473EMI    H0B 8976   3.979   0.193   0.599  0.5734 -0.0422  0.7699
  473EMI    H0C 8977   4.134   0.230   0.551 -0.4635  1.6952 -0.3707
  473EMI    H0D 8978   4.117   0.085   0.648  1.3838  0.2064 -1.1957
  473EMI    N00 8979   4.108   0.264   0.754  0.4900 -0.3053  0.3007
  473EMI    C06 8980   4.166   0.351   1.102 -0.3018 -0.5793  0.5291
  473EMI    H0F 8981   4.227   0.439   1.114 -0.3499 -0.7686  2.3139
  473EMI    C0N 8982   4.031   0.357   1.171  0.7541  1.1165 -0.2666
  473EMI    H0O 8983   3.996   0.457   1.148  0.9552  1.6308  1.5482
  473EMI    H0P 8984   3.959   0.283   1.140  0.3405  1.6292 -0.5492
  473EMI    H0Q 8985   4.038   0.362   1.279  0.2937  1.5110 -0.2522
  473EMI    N02 8986   4.150   0.341   0.953  0.0469 -0.1501 -0.6058
  473EMI    H0E 8987   4.210   0.262   1.143 -1.7456 -2.2702 -1.3730
  474EMI    C01 8988   4.442   0.572   0.100 -0.7376  0.0076  0.1128
  474EMI    C04 8989   4.437   0.380   0.185  0.0273  0.0518 -0.1209
  474EMI    C03 8990   4.536   0.375   0.102  0.6254  0.5952  0.0064
  474EMI    H07 8991   4.417   0.673   0.075  1.2340  0.1762 -1.4738
  474EMI    H09 8992   4.426   0.307   0.263 -0.6191  1.2614  0.9595
  474EMI    H08 8993   4.594   0.290   0.071  0.8118 -0.3219  2.6386
  474EMI    C05 8994   4.614   0.536  -0.076 -0.1617  0.0781 -0.5171
  474EMI    H0B 8995   4.717   0.547  -0.048 -0.2318  2.2358 -0.9133
  474EMI    H0C 8996   4.611   0.452  -0.144  0.6704  0.8249 -1.5157
  474EMI    H0D 8997   4.574   0.625  -0.123 -1.8151 -1.0795 -1.4056
  474EMI    N00 8998   4.533   0.500   0.046  0.1610  0.1460 -0.0181
  474EMI    C06 8999   4.300   0.550   0.305 -0.0087 -0.4152 -0.0771
  474EMI    H0F 9000   4.287   0.656   0.291 -0.2019 -0.3566  0.5472
  474EMI    C0N 9001   4.166   0.480   0.309  0.0333 -0.4184  0.0164
  474EMI    H0O 9002   4.100   0.530   0.379  0.4382  1.2652 -0.7505
  474EMI    H0P 9003   4.118   0.492   0.212 -0.1925  3.7915  0.4688
  474EMI    H0Q 9004   4.155   0.377   0.343 -0.2821 -0.1046  0.8833
  474EMI    N02 9005   4.387   0.507   0.195  0.9820  0.7976 -0.2871
  474EMI    H0E 9006   4.353   0.523   0.395  0.0664 -1.5504 -0.4461
  475EMI    C01 9007   2.849   4.771   4.590 -0.1686 -0.3407  0.0932
  475EMI    C04 9008   2.746   4.770   4.404 -0.4926  0.3516  0.1711
  475EMI    C03 9009   2.705   4.662   4.471  1.8060 -0.8374 -0.0709
  475EMI    H07 9010   2.911   4.798   4.673 -2.3864  0.7215  1.4692
  475EMI    H09 9011   2.727   4.798   4.303 -0.1879  1.7629  0.4931
  475EMI    H08 9012   2.635   4.584   4.449 -0.9291  1.6803 -1.0049
  475EMI    C05 9013   2.725   4.592   4.710  0.7852  0.5083 -0.0719
  475EMI    H0B 9014   2.699   4.648   4.798  0.9899 -0.9389  0.9455
  475EMI    H0C 9015   2.650   4.521   4.681  1.6942 -1.1912  1.5256
  475EMI    H0D 9016   2.810   4.531   4.738  1.2190  1.6237  1.1599
  475EMI    N00 9017   2.765   4.671   4.598  0.2319  0.0657  0.5731
  475EMI    C06 9018   2.925   4.948   4.438  0.0863  0.2893  0.2054
  475EMI    H0F 9019   2.989   4.919   4.356 -2.6900  0.6616 -2.2325
  475EMI    C0N 9020   2.851   5.073   4.396  0.1269 -0.5220 -0.0178
  475EMI    H0O 9021   2.752   5.050   4.359  0.6506 -0.2770 -1.6575
  475EMI    H0P 9022   2.837   5.136   4.484 -0.0154 -0.6877  0.0779
  475EMI    H0Q 9023   2.891   5.148   4.329 -0.7637  0.8512  0.9262
  475EMI    N02 9024   2.840   4.835   4.475  0.5007 -0.3594 -0.2624
  475EMI    H0E 9025   2.993   4.971   4.519  1.7366  2.2596 -1.6097
  476EMI    C01 9026   0.203   1.472   5.067 -0.9541  0.3996  0.0495
  476EMI    C04 9027   0.120   1.640   4.964 -0.0214 -0.9815  0.2510
  476EMI    C03 9028   0.018   1.569   5.023  0.1915 -0.2991  0.0285
  476EMI    H07 9029   0.279   1.402   5.095 -0.9893 -0.2863 -1.4858
  476EMI    H09 9030   0.104   1.706   4.881  0.9424 -0.3013  0.5758
  476EMI    H08 9031  -0.088   1.578   5.014  0.2634  2.2187  1.1504
  476EMI    C05 9032   0.003   1.368   5.175 -0.3629 -0.1234 -0.2427
  476EMI    H0B 9033   0.057   1.353   5.267  2.1618  3.4894 -0.9263
  476EMI    H0C 9034  -0.094   1.411   5.198 -0.5986 -1.0074  0.4914
  476EMI    H0D 9035  -0.000   1.288   5.102  0.3213 -2.2640  1.9425
  476EMI    N00 9036   0.075   1.464   5.097  0.0059 -0.0747 -0.7262
  476EMI    C06 9037   0.369   1.618   4.939 -0.1688  0.1848 -0.5035
  476EMI    H0F 9038   0.438   1.540   4.967  1.3296  0.9663 -1.8046
  476EMI    C0N 9039   0.381   1.606   4.787  0.1489  0.7544  0.7102
  476EMI    H0O 9040   0.291   1.566   4.742  1.0341  0.7280 -1.1409
  476EMI    H0P 9041   0.406   1.705   4.749 -0.4953  0.5152 -0.3709
  476EMI    H0Q 9042   0.458   1.534   4.762  1.2390  1.1560  2.6435
  476EMI    N02 9043   0.239   1.582   5.001 -0.4976  0.5806  0.4349
  476EMI    H0E 9044   0.414   1.702   4.990 -2.0120  0.9051  0.0110
  477EMI    C01 9045   3.627   0.909   3.246 -0.3704 -0.7431  0.1881
  477EMI    C04 9046   3.489   1.058   3.165 -0.8343  0.6818  0.1832
  477EMI    C03 9047   3.411   0.965   3.221 -0.1242 -0.4416 -0.5512
  477EMI    H07 9048   3.716   0.858   3.275 -0.0850  0.2577  1.1409
  477EMI    H09 9049   3.457   1.145   3.113  0.0312 -0.1864 -1.9082
  477EMI    H08 9050   3.306   0.973   3.240  0.0162 -0.9112  0.4773
  477EMI    C05 9051   3.469   0.731   3.305 -0.3927  0.0510 -0.6586
  477EMI    H0B 9052   3.534   0.718   3.390 -0.0219 -1.4159 -1.1324
  477EMI    H0C 9053   3.365   0.724   3.333 -0.1644  1.7030  0.7987
  477EMI    H0D 9054   3.505   0.664   3.228  2.3086 -0.0682  0.6055
  477EMI    N00 9055   3.502   0.864   3.264 -0.3720  0.5884 -0.5907
  477EMI    C06 9056   3.735   1.103   3.136 -0.1950  0.2881  0.0228
  477EMI    H0F 9057   3.817   1.048   3.178 -0.6910  0.6641  1.5469
  477EMI    C0N 9058   3.773   1.118   2.989 -0.1927  0.1368 -1.0031
  477EMI    H0O 9059   3.704   1.173   2.925  1.4211 -0.4777 -3.4200
  477EMI    H0P 9060   3.863   1.178   2.979  1.1106 -1.6447 -0.3353
  477EMI    H0Q 9061   3.792   1.022   2.942  1.1784  0.5545 -1.3560
  477EMI    N02 9062   3.622   1.024   3.175 -0.0044  0.2987  0.1350
  477EMI    H0E 9063   3.735   1.196   3.192  0.2648 -0.2279  0.9059
  478EMI    C01 9064   2.687   2.682   2.142 -0.8049 -0.4886  0.0736
  478EMI    C04 9065   2.559   2.581   2.005  0.4863 -0.6616 -0.0210
  478EMI    C03 9066   2.516   2.702   2.017  0.0706  0.1977 -0.2131
  478EMI    H07 9067   2.781   2.708   2.185  0.6739 -1.5613 -2.2900
  478EMI    H09 9068   2.528   2.505   1.937  0.2398 -0.3917 -0.2122
  478EMI    H08 9069   2.439   2.757   1.969 -0.5283  0.6206  1.1601
  478EMI    C05 9070   2.611   2.913   2.126  0.0626 -0.0960 -0.4325
  478EMI    H0B 9071   2.522   2.941   2.179  1.7272  0.2614  2.3507
  478EMI    H0C 9072   2.694   2.943   2.188 -0.0461  0.4897 -0.5688
  478EMI    H0D 9073   2.628   2.962   2.031  2.3743 -0.7580 -0.4164
  478EMI    N00 9074   2.602   2.771   2.098  0.4142  0.0522 -0.3673
  478EMI    C06 9075   2.728   2.425   2.106 -0.0419  0.1942 -0.1730
  478EMI    H0F 9076   2.651   2.349   2.104  0.6237 -0.5057  0.3330
  478EMI    C0N 9077   2.829   2.409   1.991  0.1278 -0.1226 -0.3522
  478EMI    H0O 9078   2.858   2.304   1.988  0.3713 -0.0316 -2.5336
  478EMI    H0P 9079   2.788   2.422   1.892  0.7902 -2.2617 -0.9713
  478EMI    H0Q 9080   2.919   2.465   2.015 -0.2344  0.5327 -0.5037
  478EMI    N02 9081   2.655   2.556   2.096 -0.3049  0.1031  0.5281
  478EMI    H0E 9082   2.766   2.418   2.207 -0.1012  0.9436 -0.0911
  479EMI    C01 9083   1.398   0.599   0.854  0.1371  0.0187 -0.5628
  479EMI    C04 9084   1.242   0.655   1.000  0.7803 -0.6704 -0.3174
  479EMI    C03 9085   1.248   0.754   0.906 -0.0959  0.0450  0.2110
  479EMI    H07 9086   1.484   0.550   0.815 -0.4093  1.2422 -3.6148
  479EMI    H09 9087   1.170   0.649   1.078  0.7872 -0.5291 -0.2998
  479EMI    H08 9088   1.179   0.835   0.896  0.6840  0.7501  0.3939
  479EMI    C05 9089   1.380   0.783   0.695  0.8496 -0.4272  0.7343
  479EMI    H0B 9090   1.436   0.718   0.629 -0.0817  0.6174 -1.1862
  479EMI    H0C 9091   1.295   0.810   0.635  0.1558  2.8222  2.9468
  479EMI    H0D 9092   1.421   0.881   0.716  0.4649  0.3749 -1.8995
  479EMI    N00 9093   1.339   0.712   0.814 -0.2541  0.8113  0.3544
  479EMI    C06 9094   1.355   0.435   1.041 -0.2237  0.7251  0.1779
  479EMI    H0F 9095   1.396   0.449   1.140  2.2125 -0.7966 -0.5165
  479EMI    C0N 9096   1.235   0.346   1.047  0.3747  0.1538  0.7768
  479EMI    H0O 9097   1.191   0.316   0.953  1.4976 -2.2324  0.9212
  479EMI    H0P 9098   1.255   0.256   1.105 -1.4192 -0.0856  1.0733
  479EMI    H0Q 9099   1.160   0.402   1.103 -1.5755  0.2551 -1.7567
  479EMI    N02 9100   1.338   0.559   0.969 -0.1339 -0.1582  0.1573
  479EMI    H0E 9101   1.424   0.378   0.981 -2.6340 -1.9650 -0.2400
  480EMI    C01 9102   2.677   1.363   1.005 -0.4270  0.2489  0.3191
  480EMI    C04 9103   2.696   1.512   0.863  0.0499 -0.8652  0.5844
  480EMI    C03 9104   2.734   1.566   0.978  0.5349  0.3344  0.0751
  480EMI    H07 9105   2.663   1.265   1.046  0.6275  0.2913  0.8273
  480EMI    H09 9106   2.690   1.548   0.762  0.1888 -1.4775  0.3577
  480EMI    H08 9107   2.768   1.665   1.001  1.0964 -0.0835  1.0749
  480EMI    C05 9108   2.757   1.463   1.216 -0.2168 -0.5539 -0.4247
  480EMI    H0B 9109   2.835   1.391   1.234 -0.3597 -0.1172  2.3869
  480EMI    H0C 9110   2.800   1.553   1.257  0.7147 -1.9968  1.9322
  480EMI    H0D 9111   2.674   1.434   1.279 -0.9373 -0.3163 -1.2393
  480EMI    N00 9112   2.713   1.467   1.073  0.2132 -0.5608  0.1971
  480EMI    C06 9113   2.625   1.288   0.767  0.1104 -0.0830  0.1926
  480EMI    H0F 9114   2.716   1.243   0.731  1.7096  2.2885  0.9899
  480EMI    C0N 9115   2.509   1.204   0.797  0.2923  0.3578  0.4233
  480EMI    H0O 9116   2.535   1.126   0.868  0.7673 -0.9269 -1.0915
  480EMI    H0P 9117   2.429   1.268   0.833 -0.8285 -0.9404  0.3680
  480EMI    H0Q 9118   2.482   1.165   0.700  1.7779 -1.2399  0.6049
  480EMI    N02 9119   2.664   1.383   0.878  0.3915  0.1420  1.0269
  480EMI    H0E 9120   2.590   1.348   0.685  1.1723 -1.6206 -1.4612
  481EMI    C01 9121   0.552   3.528   3.005  0.0328  0.4736 -0.2882
  481EMI    C04 9122   0.369   3.642   3.059  0.2422  0.8122  0.0184
  481EMI    C03 9123   0.477   3.703   3.110 -0.6538  0.4456 -0.1714
  481EMI    H07 9124   0.617   3.464   2.950 -0.4565 -0.3430  0.0782
  481EMI    H09 9125   0.265   3.658   3.072 -0.4120 -1.9186 -1.1050
  481EMI    H08 9126   0.472   3.789   3.172 -1.9197 -1.3721  2.4222
  481EMI    C05 9127   0.727   3.679   3.090  0.0858  0.0427  0.0529
  481EMI    H0B 9128   0.742   3.763   3.024 -0.1598  0.9957  1.1706
  481EMI    H0C 9129   0.749   3.695   3.195  0.4532 -1.9887  0.3245
  481EMI    H0D 9130   0.793   3.596   3.068 -1.0477 -1.3193  1.5436
  481EMI    N00 9131   0.592   3.629   3.074 -0.2979 -0.3016 -0.2648
  481EMI    C06 9132   0.339   3.405   2.952 -0.2113  0.1542  0.1847
  481EMI    H0F 9133   0.384   3.363   2.864 -0.1520  2.4296 -0.9441
  481EMI    C0N 9134   0.305   3.303   3.058 -0.9355  0.7625  0.0587
  481EMI    H0O 9135   0.240   3.234   3.006  1.2030  0.6246 -2.6401
  481EMI    H0P 9136   0.398   3.250   3.078 -0.7830 -0.0467 -2.4432
  481EMI    H0Q 9137   0.266   3.345   3.150 -0.4802 -0.8261  1.0341
  481EMI    N02 9138   0.416   3.525   2.999 -0.0950 -0.4813 -0.0150
  481EMI    H0E 9139   0.250   3.455   2.916  0.2283 -0.1641 -1.4137
  482EMI    C01 9140   2.593   5.021   3.013  0.0274 -0.1226 -1.0502
  482EMI    C04 9141   2.715   4.853   3.075 -1.2710  0.2903  0.3271
  482EMI    C03 9142   2.672   4.835   2.953 -0.3203  0.9078 -0.1762
  482EMI    H07 9143   2.543   5.115   3.013  0.3777  0.0651 -0.9577
  482EMI    H09 9144   2.770   4.788   3.140 -0.0635  0.8346 -0.1307
  482EMI    H08 9145   2.687   4.740   2.905 -0.1829 -0.8175  3.0404
  482EMI    C05 9146   2.543   4.959   2.785  0.1650 -0.2961 -0.0290
  482EMI    H0B 9147   2.454   4.900   2.778  0.3645 -0.7731  1.1971
  482EMI    H0C 9148   2.530   5.058   2.744 -0.6017 -0.6693 -0.7025
  482EMI    H0D 9149   2.609   4.911   2.714 -0.7236 -1.4612 -0.0905
  482EMI    N00 9150   2.598   4.941   2.910  0.4175  0.1792  0.0281
  482EMI    C06 9151   2.686   5.035   3.240 -0.2476  0.4099  0.2996
  482EMI    H0F 9152   2.756   5.114   3.221  0.3011 -0.5599 -2.1283
  482EMI    C0N 9153   2.562   5.074   3.317  0.0036  0.4847 -0.4040
  482EMI    H0O 9154   2.572   5.115   3.417 -0.5511  0.2929 -0.2678
  482EMI    H0P 9155   2.525   5.158   3.260  0.0652  1.4749  0.9614
  482EMI    H0Q 9156   2.493   4.991   3.330  0.4108  0.1710 -0.2125
  482EMI    N02 9157   2.651   4.966   3.116  0.3353 -0.4726  0.1188
  482EMI    H0E 9158   2.726   4.957   3.303 -1.7003 -1.0900 -0.5388
  483EMI    C01 9159   4.977   1.260   3.543  0.3562 -0.3274  0.1836
  483EMI    C04 9160   4.773   1.200   3.549  0.6927  0.2065  0.3185
  483EMI    C03 9161   4.793   1.270   3.659 -0.5551 -0.5280 -0.1073
  483EMI    H07 9162   5.076   1.289   3.514  0.0643  0.5663  0.0400
  483EMI    H09 9163   4.682   1.157   3.516  0.3827  1.7805 -1.0309
  483EMI    H08 9164   4.727   1.303   3.735  0.0125 -0.1068  0.2090
  483EMI    C05 9165   4.994   1.390   3.740  0.2315  0.1342  1.3519
  483EMI    H0B 9166   4.976   1.366   3.844 -2.5142 -0.7595  0.7221
  483EMI    H0C 9167   5.102   1.393   3.738  0.2734  1.5041  2.8701
  483EMI    H0D 9168   4.970   1.495   3.726  0.8958  0.0627 -0.5810
  483EMI    N00 9169   4.925   1.309   3.650 -0.1767  0.5541 -0.3337
  483EMI    C06 9170   4.917   1.087   3.368 -0.0389  0.2472  0.4800
  483EMI    H0F 9171   4.911   0.981   3.389 -2.1425  0.1652 -0.2435
  483EMI    C0N 9172   4.826   1.114   3.251 -0.4166 -1.1479  0.4771
  483EMI    H0O 9173   4.727   1.078   3.277 -0.4144 -0.1472  1.9985
  483EMI    H0P 9174   4.819   1.221   3.232  0.0471 -1.2685 -0.4353
  483EMI    H0Q 9175   4.868   1.074   3.159 -0.6417 -0.0259 -0.1358
  483EMI    N02 9176   4.893   1.181   3.486 -0.8244  0.6689 -0.0935
  483EMI    H0E 9177   5.017   1.108   3.335 -0.2964  0.5578 -0.1183
  484EMI    C01 9178   3.264   4.955   1.951 -0.2351  0.1691 -0.0637
  484EMI    C04 9179   3.391   4.788   1.994 -0.7887  0.1401 -0.8359
  484EMI    C03 9180   3.471   4.897   1.997  0.0173  0.2185 -0.1159
  484EMI    H07 9181   3.176   5.003   1.915 -0.5420 -0.5704 -0.3132
  484EMI    H09 9182   3.427   4.689   2.013 -0.0103  0.5119 -0.3560
  484EMI    H08 9183   3.577   4.899   2.009 -0.2262  0.1882  2.7237
  484EMI    C05 9184   3.418   5.145   1.985 -0.5691 -0.1681  0.2062
  484EMI    H0B 9185   3.385   5.193   2.076 -0.9257  0.9044 -0.4691
  484EMI    H0C 9186   3.522   5.170   1.968 -0.3171 -0.3932  1.3382
  484EMI    H0D 9187   3.377   5.201   1.903  0.5852  1.1485  0.4782
  484EMI    N00 9188   3.386   5.004   1.974 -0.1687 -0.6277  0.2075
  484EMI    C06 9189   3.141   4.733   1.966 -0.1119  0.1215  0.2764
  484EMI    H0F 9190   3.113   4.712   2.068 -1.8453  1.2616  0.0787
  484EMI    C0N 9191   3.017   4.784   1.897  0.0559  0.0414 -0.0720
  484EMI    H0O 9192   2.959   4.864   1.941  0.5618  0.9834 -1.0769
  484EMI    H0P 9193   3.048   4.813   1.797 -3.1510  0.1518 -1.1673
  484EMI    H0Q 9194   2.955   4.697   1.883 -0.2569  0.1897  0.3723
  484EMI    N02 9195   3.260   4.823   1.980 -0.2043 -0.2764  0.2894
  484EMI    H0E 9196   3.158   4.642   1.911 -0.4861  0.6455 -0.7172
  485EMI    C01 9197   2.308   3.167   3.787  0.0662 -0.1227  0.8754
  485EMI    C04 9198   2.213   3.356   3.832 -0.1386 -0.0569  0.0546
  485EMI    C03 9199   2.177   3.319   3.707 -0.1763  0.1526  0.1187
  485EMI    H07 9200   2.380   3.089   3.793  1.6544  1.1842 -0.4046
  485EMI    H09 9201   2.202   3.452   3.877 -0.3507  1.2085 -2.5165
  485EMI    H08 9202   2.126   3.379   3.635 -1.1142 -0.5961  0.1335
  485EMI    C05 9203   2.234   3.137   3.547  0.8208 -0.0577  0.3772
  485EMI    H0B 9204   2.326   3.164   3.498  1.8060 -3.1392  0.3228
  485EMI    H0C 9205   2.224   3.031   3.567 -1.0066  0.1810  0.8446
  485EMI    H0D 9206   2.150   3.172   3.489  1.9751 -1.2885 -2.2126
  485EMI    N00 9207   2.247   3.206   3.679  0.0400  0.3139 -0.6425
  485EMI    C06 9208   2.348   3.255   4.019 -0.9994  0.2792  0.4279
  485EMI    H0F 9209   2.398   3.159   4.015  0.7974  1.1956 -0.1378
  485EMI    C0N 9210   2.456   3.364   4.026  1.3410 -0.3621 -0.2065
  485EMI    H0O 9211   2.496   3.360   3.925  1.6363 -2.3287 -0.0589
  485EMI    H0P 9212   2.409   3.460   4.046  0.6585 -0.0158 -3.0868
  485EMI    H0Q 9213   2.537   3.337   4.093 -0.0124  1.2752  2.2449
  485EMI    N02 9214   2.291   3.255   3.888 -0.7593  0.8301 -0.2578
  485EMI    H0E 9215   2.272   3.253   4.097  0.1208  0.5949  1.5594
  486EMI    C01 9216   2.540   0.883   2.457 -0.5378 -0.6694 -0.8008
  486EMI    C04 9217   2.614   1.009   2.625 -0.0921  0.4859  0.7037
  486EMI    C03 9218   2.652   0.881   2.647  0.2824 -0.0023  0.7126
  486EMI    H07 9219   2.504   0.853   2.361  0.6006  0.5648 -1.6593
  486EMI    H09 9220   2.618   1.096   2.687 -1.4577  0.3206  1.0547
  486EMI    H08 9221   2.692   0.841   2.737  1.2511 -0.8656 -0.0716
  486EMI    C05 9222   2.612   0.663   2.534  0.4105 -0.2615  0.3882
  486EMI    H0B 9223   2.546   0.630   2.455  0.1420 -1.9899  1.2836
  486EMI    H0C 9224   2.709   0.633   2.498 -0.5500 -1.2543 -1.5649
  486EMI    H0D 9225   2.589   0.615   2.628 -0.8146 -1.1894 -0.3595
  486EMI    N00 9226   2.601   0.804   2.543  0.1487 -0.2515 -0.0953
  486EMI    C06 9227   2.529   1.128   2.415 -0.0208 -0.5746 -0.3046
  486EMI    H0F 9228   2.619   1.162   2.367  0.6380 -1.6786  0.1065
  486EMI    C0N 9229   2.437   1.098   2.300  0.0680  0.4564 -0.1167
  486EMI    H0O 9230   2.409   1.192   2.253 -0.1102  1.6085  2.1521
  486EMI    H0P 9231   2.487   1.032   2.230  0.6003  0.6997  0.0253
  486EMI    H0Q 9232   2.345   1.050   2.330 -0.5951 -0.8537 -3.8075
  486EMI    N02 9233   2.559   1.010   2.496  0.1874 -0.3241  0.2373
  486EMI    H0E 9234   2.491   1.209   2.476 -0.0992  0.0212 -1.1376
  487EMI    C01 9235   1.568   1.081   2.368 -0.1215  0.5040 -0.8822
  487EMI    C04 9236   1.482   1.182   2.546 -0.1436  0.4398 -0.4180
  487EMI    C03 9237   1.522   1.275   2.462  0.3418 -0.3685  0.0038
  487EMI    H07 9238   1.599   1.003   2.302 -2.0553 -1.0696 -0.0444
  487EMI    H09 9239   1.434   1.207   2.638 -1.2827 -0.8158 -0.6376
  487EMI    H08 9240   1.503   1.379   2.481  0.6487 -0.7344  2.7879
  487EMI    C05 9241   1.603   1.286   2.232 -0.0563  0.4511 -0.3484
  487EMI    H0B 9242   1.516   1.335   2.190  1.4026  1.3568 -2.4882
  487EMI    H0C 9243   1.656   1.374   2.266  0.2771  0.3989 -0.7375
  487EMI    H0D 9244   1.646   1.238   2.146 -3.7834  0.1230 -2.2365
  487EMI    N00 9245   1.573   1.209   2.350 -0.4692 -0.9825 -0.1873
  487EMI    C06 9246   1.507   0.929   2.566  0.4899 -0.6322  0.2402
  487EMI    H0F 9247   1.437   0.857   2.526  2.3002 -2.2217 -0.2209
  487EMI    C0N 9248   1.637   0.877   2.602  0.5523  0.4960 -0.3122
  487EMI    H0O 9249   1.698   0.855   2.515 -3.1260 -2.5227 -2.4557
  487EMI    H0P 9250   1.685   0.937   2.678 -3.5062  1.1420  2.0150
  487EMI    H0Q 9251   1.624   0.780   2.648  1.1695  1.3918  1.8734
  487EMI    N02 9252   1.521   1.057   2.493 -0.2899  0.5747  0.5733
  487EMI    H0E 9253   1.465   0.951   2.663 -0.5504  0.4515 -0.4265
  488EMI    C01 9254   4.314   3.481   3.254  0.4460  0.3303 -0.3326
  488EMI    C04 9255   4.231   3.325   3.128  0.0808 -0.0331  0.5184
  488EMI    C03 9256   4.230   3.445   3.059 -0.0621  0.0716 -0.7088
  488EMI    H07 9257   4.347   3.526   3.345  1.5585 -1.3128  0.1154
  488EMI    H09 9258   4.196   3.228   3.099 -0.0592 -0.5566  2.3259
  488EMI    H08 9259   4.178   3.465   2.968  0.2797  1.9154 -0.5343
  488EMI    C05 9260   4.301   3.684   3.121 -0.2883 -0.3013  0.1776
  488EMI    H0B 9261   4.305   3.713   3.017 -3.3538  0.4985  0.2086
  488EMI    H0C 9262   4.220   3.742   3.161 -2.1961 -2.0376 -0.9660
  488EMI    H0D 9263   4.393   3.703   3.174  0.1241  2.2711 -1.3113
  488EMI    N00 9264   4.279   3.543   3.142 -0.3232  0.3952  0.1082
  488EMI    C06 9265   4.334   3.250   3.350 -0.4239 -0.4535  0.1865
  488EMI    H0F 9266   4.440   3.260   3.369  0.6782 -4.0329 -2.8482
  488EMI    C0N 9267   4.254   3.274   3.482 -0.2032  0.5276  0.0886
  488EMI    H0O 9268   4.260   3.186   3.545  0.7536 -0.8048 -1.7803
  488EMI    H0P 9269   4.299   3.353   3.542  0.2133  0.0998  0.3426
  488EMI    H0Q 9270   4.153   3.314   3.477  0.6464  3.4622  2.7871
  488EMI    N02 9271   4.301   3.348   3.242 -0.0463 -0.1577 -0.1663
  488EMI    H0E 9272   4.330   3.147   3.315  0.8253 -0.3382 -0.3182
  489EMI    C01 9273   2.200   1.022   4.700  0.5903  0.3510 -0.4876
  489EMI    C04 9274   2.349   0.927   4.813 -0.4635  0.6156 -0.7353
  489EMI    C03 9275   2.230   0.901   4.878 -0.4216  0.4472  0.2901
  489EMI    H07 9276   2.147   1.077   4.625  1.0924  1.6286  0.0594
  489EMI    H09 9277   2.449   0.901   4.842 -1.1475 -1.1652  0.1230
  489EMI    H08 9278   2.214   0.851   4.971 -0.4436  1.4876  0.8706
  489EMI    C05 9279   1.989   0.967   4.835 -0.6948  0.4751 -0.0667
  489EMI    H0B 9280   1.968   1.035   4.917  0.2477 -0.1741  0.7311
  489EMI    H0C 9281   1.931   1.002   4.751 -2.0341  3.0466  1.7772
  489EMI    H0D 9282   1.963   0.870   4.874 -0.6146  0.6806  0.5114
  489EMI    N00 9283   2.133   0.963   4.802 -0.6084  0.5064  0.0336
  489EMI    C06 9284   2.421   1.043   4.599 -0.1002 -0.9755 -0.3830
  489EMI    H0F 9285   2.368   1.086   4.516  2.0264  2.1032 -0.3007
  489EMI    C0N 9286   2.519   1.154   4.652 -0.0322 -0.3392  0.2080
  489EMI    H0O 9287   2.566   1.199   4.566  1.0668 -1.9252 -0.0729
  489EMI    H0P 9288   2.451   1.230   4.689 -0.2695 -0.3937 -0.1158
  489EMI    H0Q 9289   2.586   1.145   4.737  3.0605  3.2749 -1.5534
  489EMI    N02 9290   2.325   0.995   4.702 -0.5712 -0.0275 -0.3937
  489EMI    H0E 9291   2.468   0.952   4.563 -0.7708 -0.9540 -1.3362
  490EMI    C01 9292   1.229   4.592   3.685 -0.2948 -0.5686  0.5102
  490EMI    C04 9293   1.303   4.724   3.843 -0.0335 -0.3517 -0.0557
  490EMI    C03 9294   1.411   4.675   3.777 -0.6232  0.3629 -0.4132
  490EMI    H07 9295   1.162   4.533   3.626 -1.3298  1.4354 -0.4151
  490EMI    H09 9296   1.310   4.790   3.926  0.4480 -0.3263 -0.1167
  490EMI    H08 9297   1.511   4.708   3.793  0.5080 -3.5258  1.7874
  490EMI    C05 9298   1.438   4.513   3.573 -0.7801  0.2743  0.0047
  490EMI    H0B 9299   1.462   4.417   3.616  1.6481  1.0407  0.5021
  490EMI    H0C 9300   1.385   4.505   3.479  1.6560 -3.9012 -1.2587
  490EMI    H0D 9301   1.536   4.556   3.557 -0.9798  0.7126 -0.0552
  490EMI    N00 9302   1.358   4.597   3.673  0.0428  0.0481  0.2827
  490EMI    C06 9303   1.056   4.665   3.837 -0.1768  0.2751 -0.6789
  490EMI    H0F 9304   1.003   4.732   3.770 -2.0228  0.0502  0.4800
  490EMI    C0N 9305   0.981   4.531   3.835  0.0707 -0.3971  0.2049
  490EMI    H0O 9306   0.877   4.557   3.848  0.0362  0.0769 -0.8528
  490EMI    H0P 9307   0.988   4.471   3.744 -0.7862 -0.4105  0.1412
  490EMI    H0Q 9308   1.015   4.475   3.921  1.3331  0.6382  0.3978
  490EMI    N02 9309   1.197   4.661   3.787 -0.4074  0.2269 -0.1587
  490EMI    H0E 9310   1.065   4.696   3.940 -0.4236 -1.0535 -0.2350
  491EMI    C01 9311   0.821   0.744   2.264  0.1155 -0.1050 -0.6751
  491EMI    C04 9312   0.884   0.884   2.413 -0.1598 -0.5864 -0.1446
  491EMI    C03 9313   0.982   0.882   2.319  0.1747  0.3385 -0.0711
  491EMI    H07 9314   0.765   0.677   2.201 -0.9485  0.1565 -0.0270
  491EMI    H09 9315   0.876   0.943   2.501 -2.1044 -1.2394  0.1754
  491EMI    H08 9316   1.072   0.938   2.330 -1.4656  3.5907 -1.6444
  491EMI    C05 9317   1.002   0.769   2.094 -0.3441  0.5938 -0.5798
  491EMI    H0B 9318   1.106   0.801   2.094  0.2360 -0.9453  2.2183
  491EMI    H0C 9319   1.000   0.661   2.090  1.0481  0.5225 -0.1746
  491EMI    H0D 9320   0.932   0.816   2.026  1.4818  1.7455 -1.7626
  491EMI    N00 9321   0.940   0.794   2.225  0.2140 -0.1918  0.3643
  491EMI    C06 9322   0.645   0.798   2.435  0.9534 -0.0952  0.0842
  491EMI    H0F 9323   0.608   0.702   2.402 -1.9687  1.3948 -1.3767
  491EMI    C0N 9324   0.620   0.812   2.585 -0.6572  1.1536 -0.4575
  491EMI    H0O 9325   0.525   0.849   2.621  0.3884  1.4187  2.3598
  491EMI    H0P 9326   0.632   0.722   2.644 -1.6060  1.2523 -0.0953
  491EMI    H0Q 9327   0.692   0.877   2.635 -0.5661  0.8755 -0.2240
  491EMI    N02 9328   0.778   0.809   2.371  0.0891  0.4349  0.0681
  491EMI    H0E 9329   0.583   0.874   2.391  0.8938  0.1048  0.5099
  492EMI    C01 9330   1.875   0.869   4.126 -0.6383  0.0752  0.4957
  492EMI    C04 9331   1.740   1.021   4.054 -0.2857 -0.5990 -0.2698
  492EMI    C03 9332   1.810   0.973   3.948 -0.0345  0.5806 -0.0491
  492EMI    H07 9333   1.927   0.805   4.194  3.0093  1.0323 -1.1176
  492EMI    H09 9334   1.672   1.103   4.064 -0.5157 -0.6610 -1.2237
  492EMI    H08 9335   1.806   1.011   3.849  1.2322  1.5437  0.2362
  492EMI    C05 9336   1.952   0.763   3.913  0.2223  0.1171  0.1140
  492EMI    H0B 9337   2.050   0.734   3.945  1.3051 -0.1293 -3.0132
  492EMI    H0C 9338   1.886   0.680   3.889 -1.5903  1.0404  1.6789
  492EMI    H0D 9339   1.959   0.818   3.820  0.4941 -2.4041 -1.4866
  492EMI    N00 9340   1.883   0.864   3.994 -0.4870 -0.4489 -0.1606
  492EMI    C06 9341   1.769   0.995   4.308  0.3827 -0.3291 -0.9307
  492EMI    H0F 9342   1.846   0.937   4.357  0.2715 -1.4731 -2.0541
  492EMI    C0N 9343   1.783   1.141   4.326 -0.3018  0.0733  0.2403
  492EMI    H0O 9344   1.698   1.186   4.276 -1.3007 -1.0000  0.9255
  492EMI    H0P 9345   1.783   1.166   4.431 -1.3473  1.8865 -0.1637
  492EMI    H0Q 9346   1.880   1.173   4.289  0.9118 -2.4909  0.9731
  492EMI    N02 9347   1.788   0.955   4.166  0.1042 -0.4950 -0.3826
  492EMI    H0E 9348   1.675   0.950   4.336  1.2796 -2.9114 -1.7765
  493EMI    C01 9349   0.819   1.484   1.655  0.1761 -0.0770  0.0443
  493EMI    C04 9350   0.820   1.338   1.495 -0.4256  0.1971  0.3617
  493EMI    C03 9351   0.869   1.450   1.450 -0.6516  0.5325  0.1999
  493EMI    H07 9352   0.809   1.534   1.749  1.8945  1.2178 -0.4117
  493EMI    H09 9353   0.801   1.245   1.446 -0.5436 -0.9695  2.4855
  493EMI    H08 9354   0.894   1.464   1.347 -0.6623  0.6149  0.2078
  493EMI    C05 9355   0.924   1.678   1.527 -0.3665  0.5217 -0.6054
  493EMI    H0B 9356   0.892   1.727   1.437  0.5584  0.5367 -0.9359
  493EMI    H0C 9357   0.891   1.731   1.615 -2.6633  0.5318 -1.4012
  493EMI    H0D 9358   1.031   1.667   1.516 -0.5255 -0.2735 -1.4829
  493EMI    N00 9359   0.876   1.541   1.549 -0.0196 -0.0905 -0.4230
  493EMI    C06 9360   0.708   1.278   1.711 -0.3427 -0.5807  0.2011
  493EMI    H0F 9361   0.775   1.217   1.770 -0.5581  0.9638  2.1330
  493EMI    C0N 9362   0.627   1.361   1.806 -1.0186 -0.0461  0.6576
  493EMI    H0O 9363   0.687   1.398   1.888 -1.4359 -0.9546  1.3929
  493EMI    H0P 9364   0.567   1.446   1.773 -1.9222  0.0847  2.5084
  493EMI    H0Q 9365   0.567   1.284   1.853 -2.6140  0.7424  0.0047
  493EMI    N02 9366   0.782   1.364   1.624  0.5126  0.1051  0.1989
  493EMI    H0E 9367   0.635   1.217   1.659  0.4763 -1.9113  0.5552
  494EMI    C01 9368   2.103   4.774   3.081 -0.8119 -0.2802  0.4932
  494EMI    C04 9369   2.159   4.666   2.905  0.1126 -0.2469  0.2961
  494EMI    C03 9370   2.270   4.670   2.986  0.1997 -0.2895 -1.0168
  494EMI    H07 9371   2.055   4.840   3.150 -1.1217  1.2186 -1.0789
  494EMI    H09 9372   2.143   4.621   2.809  2.1601 -0.2979 -0.0705
  494EMI    H08 9373   2.369   4.634   2.973  0.8755  1.3768 -0.7097
  494EMI    C05 9374   2.314   4.784   3.216 -0.2482  0.7327  0.1150
  494EMI    H0B 9375   2.414   4.792   3.176 -0.5312  0.7186 -0.6211
  494EMI    H0C 9376   2.272   4.876   3.253 -2.2100 -0.1890  0.3490
  494EMI    H0D 9377   2.304   4.704   3.288 -2.6339  2.4922  1.9188
  494EMI    N00 9378   2.233   4.742   3.101  0.0408  0.3803 -0.3709
  494EMI    C06 9379   1.919   4.752   2.920  1.5906  0.2960 -0.1730
  494EMI    H0F 9380   1.848   4.675   2.948 -1.8446  2.7259 -1.4639
  494EMI    C0N 9381   1.875   4.896   2.952 -0.0470 -0.2302  0.3259
  494EMI    H0O 9382   1.771   4.918   2.931  0.1465 -0.4115 -0.8667
  494EMI    H0P 9383   1.882   4.920   3.057  0.9710 -1.1061  0.4781
  494EMI    H0Q 9384   1.940   4.966   2.901 -1.0893 -1.6545 -3.3172
  494EMI    N02 9385   2.051   4.721   2.979  1.2229  0.5150  0.2343
  494EMI    H0E 9386   1.927   4.741   2.813  1.8589  0.8507 -0.2149
  495EMI    C01 9387   1.134   3.748   3.988 -0.1126  0.1630 -0.1834
  495EMI    C04 9388   1.062   3.811   3.792  0.2516  0.7710 -0.0860
  495EMI    C03 9389   0.985   3.864   3.883  0.1993 -0.2317 -0.4049
  495EMI    H07 9390   1.188   3.705   4.069 -0.9283  2.7144  1.8536
  495EMI    H09 9391   1.064   3.817   3.685  2.5038  3.1089 -0.0106
  495EMI    H08 9392   0.899   3.928   3.880  1.2554  1.4620  2.1484
  495EMI    C05 9393   0.985   3.877   4.141 -0.2950 -0.8716  0.0530
  495EMI    H0B 9394   0.878   3.867   4.145 -0.3462 -1.4685 -1.9056
  495EMI    H0C 9395   1.036   3.827   4.222  2.7177  0.2528 -0.9676
  495EMI    H0D 9396   0.985   3.985   4.151 -1.0442 -0.7891 -0.7752
  495EMI    N00 9397   1.034   3.834   4.008  0.3701 -0.1746  0.2720
  495EMI    C06 9398   1.257   3.640   3.796  0.4610  0.0213 -0.4501
  495EMI    H0F 9399   1.218   3.547   3.758  0.9292 -0.1630 -0.4844
  495EMI    C0N 9400   1.337   3.707   3.684 -0.2780  0.2446 -0.4910
  495EMI    H0O 9401   1.269   3.737   3.606 -1.4118  1.5832  0.9439
  495EMI    H0P 9402   1.376   3.790   3.742 -0.8026  0.3512 -0.2911
  495EMI    H0Q 9403   1.416   3.641   3.650 -0.7307  0.4672 -2.0341
  495EMI    N02 9404   1.155   3.730   3.859 -0.2297  0.2275 -0.3269
  495EMI    H0E 9405   1.320   3.628   3.883  0.3960  2.5400  0.0026
  496EMI    C01 9406   0.719   2.895   3.196 -0.5863 -0.2238  0.7290
  496EMI    C04 9407   0.747   2.746   3.349 -0.8270 -0.7037  0.3936
  496EMI    C03 9408   0.802   2.703   3.233  0.1945 -0.9647  0.2394
  496EMI    H07 9409   0.682   2.981   3.143 -0.9709 -1.0111 -0.3111
  496EMI    H09 9410   0.749   2.700   3.445  0.1352 -0.2233  0.6098
  496EMI    H08 9411   0.861   2.617   3.211  0.1095 -1.3871  1.5438
  496EMI    C05 9412   0.835   2.792   3.001 -0.3413 -0.4901  0.3417
  496EMI    H0B 9413   0.778   2.721   2.942  1.5680 -1.7345 -0.0701
  496EMI    H0C 9414   0.824   2.881   2.941 -1.4018 -0.3812  0.6769
  496EMI    H0D 9415   0.938   2.762   3.006 -0.1875 -0.4886 -1.8619
  496EMI    N00 9416   0.783   2.800   3.137  0.1937 -0.2554 -0.3817
  496EMI    C06 9417   0.632   2.950   3.422 -0.6239  0.0564 -0.1625
  496EMI    H0F 9418   0.679   2.925   3.516 -0.4250  1.9162  0.2720
  496EMI    C0N 9419   0.652   3.102   3.388 -0.8925 -0.2678 -0.0364
  496EMI    H0O 9420   0.609   3.115   3.290  1.3326 -0.3704 -1.0871
  496EMI    H0P 9421   0.601   3.168   3.457 -2.1442 -0.1407 -1.0529
  496EMI    H0Q 9422   0.755   3.129   3.367 -1.6255  1.5905 -1.5157
  496EMI    N02 9423   0.688   2.868   3.319 -0.0036  0.2392  0.4095
  496EMI    H0E 9424   0.529   2.918   3.424 -1.1259  1.4703 -1.2068
  497EMI    C01 9425   4.009   4.804   2.028 -0.7810  0.1985  0.0092
  497EMI    C04 9426   4.188   4.757   1.905  0.0273 -0.0253  0.1469
  497EMI    C03 9427   4.223   4.848   1.996  0.5662 -0.6540 -0.2411
  497EMI    H07 9428   3.907   4.816   2.058 -0.3040 -0.5989  2.0812
  497EMI    H09 9429   4.249   4.707   1.832 -1.5112 -2.4069  0.3613
  497EMI    H08 9430   4.316   4.899   2.009 -0.3157  1.2943 -1.2089
  497EMI    C05 9431   4.093   4.985   2.177 -0.3162 -0.6861  0.0241
  497EMI    H0B 9432   4.188   5.034   2.195 -0.4520 -0.1090 -0.7431
  497EMI    H0C 9433   4.023   5.060   2.143  0.6414 -0.4058 -1.4507
  497EMI    H0D 9434   4.058   4.930   2.262  2.2647 -0.6604  1.2016
  497EMI    N00 9435   4.105   4.882   2.070  0.8755  0.3299  0.4603
  497EMI    C06 9436   3.988   4.598   1.879 -0.0721 -0.3986  0.2021
  497EMI    H0F 9437   4.060   4.517   1.887 -1.3381 -1.5711  0.0981
  497EMI    C0N 9438   3.870   4.566   1.971  0.0551 -0.6094  0.2075
  497EMI    H0O 9439   3.907   4.564   2.073 -2.0569 -0.1412  1.0335
  497EMI    H0P 9440   3.793   4.642   1.964  0.8252  0.3176  1.3196
  497EMI    H0Q 9441   3.824   4.470   1.956  1.4175 -1.3384  0.5104
  497EMI    N02 9442   4.057   4.722   1.930 -0.3789  0.0088 -0.2428
  497EMI    H0E 9443   3.969   4.612   1.774 -2.2295 -0.3731  0.5580
  498EMI    C01 9444   3.127   2.241   3.735  0.4794 -0.0365  0.4670
  498EMI    C04 9445   2.962   2.168   3.613  0.1649  0.6893  0.2752
  498EMI    C03 9446   2.933   2.297   3.642 -0.5389  0.5262  0.2809
  498EMI    H07 9447   3.222   2.241   3.784  0.5166 -1.4043  0.4300
  498EMI    H09 9448   2.907   2.098   3.554 -0.5682  1.2317  0.3000
  498EMI    H08 9449   2.848   2.358   3.618  0.1913  1.2895 -0.4904
  498EMI    C05 9450   3.051   2.477   3.786 -0.7486 -0.4093 -0.7416
  498EMI    H0B 9451   3.154   2.500   3.809 -1.0297  0.2567 -0.1196
  498EMI    H0C 9452   3.007   2.547   3.716 -0.1641  0.8716  0.1374
  498EMI    H0D 9453   2.996   2.471   3.879  2.2146 -1.8040  1.0618
  498EMI    N00 9454   3.043   2.341   3.722  0.4644 -0.1055  1.2439
  498EMI    C06 9455   3.133   2.003   3.683  0.3588 -0.0735 -0.0060
  498EMI    H0F 9456   3.227   2.000   3.737 -0.6615 -0.7739  1.8095
  498EMI    C0N 9457   3.037   1.912   3.761  0.4178 -0.6588 -0.0929
  498EMI    H0O 9458   3.084   1.814   3.760 -1.8456 -1.8219 -1.4373
  498EMI    H0P 9459   3.038   1.942   3.865 -1.2727 -0.5122 -0.0841
  498EMI    H0Q 9460   2.936   1.900   3.722  0.2611  0.6049 -0.1089
  498EMI    N02 9461   3.083   2.136   3.674 -0.0235 -0.9728 -0.0099
  498EMI    H0E 9462   3.143   1.978   3.579  0.9829  1.4850 -0.3475
  499EMI    C01 9463   0.918   1.955   4.954  0.1655 -0.3345  0.6407
  499EMI    C04 9464   0.884   2.043   5.151 -0.3465  0.1097  0.4825
  499EMI    C03 9465   0.771   1.979   5.111  0.1171 -0.3707 -0.7451
  499EMI    H07 9466   0.957   1.919   4.861 -3.3684 -0.0602 -1.1083
  499EMI    H09 9467   0.908   2.082   5.248  1.6382 -0.7644  0.3858
  499EMI    H08 9468   0.677   1.979   5.163  0.6677  2.9059  0.5011
  499EMI    C05 9469   0.690   1.870   4.905 -0.5025 -0.0382 -0.2616
  499EMI    H0B 9470   0.636   1.937   4.839  0.4916 -0.1863 -1.2635
  499EMI    H0C 9471   0.734   1.791   4.846  0.7940 -0.8096  1.6362
  499EMI    H0D 9472   0.629   1.817   4.977 -0.0371  1.8786  1.6518
  499EMI    N00 9473   0.789   1.935   4.986 -0.0425  0.0910 -0.5589
  499EMI    C06 9474   1.109   2.084   5.061  0.0446  0.7871 -0.0435
  499EMI    H0F 9475   1.159   2.061   4.969  1.0666 -1.4738  0.9997
  499EMI    C0N 9476   1.110   2.236   5.060 -0.0681  0.0669 -0.1162
  499EMI    H0O 9477   1.201   2.280   5.099  0.8481 -2.5509  0.9243
  499EMI    H0P 9478   1.090   2.267   4.958 -1.7381 -0.4017  0.0431
  499EMI    H0Q 9479   1.024   2.273   5.114 -0.0670 -1.2093  0.8001
  499EMI    N02 9480   0.978   2.022   5.052  0.0786  0.1039 -0.5881
  499EMI    H0E 9481   1.161   2.046   5.148 -1.5784 -1.7436 -0.0799
  500EMI    C01 9482   4.328   4.681   2.317 -0.0985  0.3868 -0.3477
  500EMI    C04 9483   4.157   4.562   2.269 -0.5041 -0.3716 -0.5560
  500EMI    C03 9484   4.241   4.544   2.171  0.9366  0.1996  0.4516
  500EMI    H07 9485   4.393   4.756   2.355  1.5000 -0.5107 -1.1957
  500EMI    H09 9486   4.061   4.524   2.295 -0.4910  0.4159  0.7584
  500EMI    H08 9487   4.226   4.501   2.075  1.8779  2.4764 -0.8068
  500EMI    C05 9488   4.478   4.636   2.114  0.5044  0.7249 -0.7879
  500EMI    H0B 9489   4.547   4.703   2.164  0.3601 -1.2960  2.3648
  500EMI    H0C 9490   4.515   4.535   2.105 -1.8144 -0.0233 -3.3943
  500EMI    H0D 9491   4.457   4.682   2.018 -0.4845  1.0837 -0.4155
  500EMI    N00 9492   4.354   4.618   2.204 -0.8253 -0.6955 -0.0306
  500EMI    C06 9493   4.134   4.708   2.476 -0.7060 -0.4369  0.1255
  500EMI    H0F 9494   4.066   4.779   2.431  0.9592  0.6082 -0.8592
  500EMI    C0N 9495   4.053   4.609   2.560  0.2311 -0.3292  0.0999
  500EMI    H0O 9496   3.956   4.656   2.573  0.8154  1.6517 -2.0285
  500EMI    H0P 9497   4.019   4.520   2.508  0.5026 -0.4422  0.1138
  500EMI    H0Q 9498   4.094   4.584   2.657 -0.7020 -2.3391  0.0265
  500EMI    N02 9499   4.204   4.655   2.356 -0.7322  0.1274  0.4776
  500EMI    H0E 9500   4.209   4.763   2.531  0.5799  1.4183 -3.1817
  501BF       B 9501   0.881   3.454   3.982  0.9473 -0.0718 -0.7017
  501BF       F 9502   0.804   3.505   3.882  0.2591  0.3628  0.1627
  501BF       F 9503   0.816   3.345   4.031 -0.7449  0.6057 -0.2524
  501BF       F 9504   1.006   3.421   3.943 -0.1707  0.0108  0.6132
  501BF       F 9505   0.887   3.552   4.086  0.2019  0.7697 -0.0440
  502BF       B 9506   4.721   0.740   0.369 -0.3543  0.2169 -0.4028
  502BF       F 9507   4.823   0.659   0.410  0.3608 -0.0143 -0.0124
  502BF       F 9508   4.740   0.765   0.237 -0.0987 -0.1998 -0.0159
  502BF       F 9509   4.597   0.678   0.373  0.1293 -0.2747 -0.1359
  502BF       F 9510   4.730   0.862   0.436  0.0420  0.0540  1.0760
  503BF       B 9511   5.107   2.507   0.451  0.4200  0.0038 -0.1072
  503BF       F 9512   5.060   2.460   0.331  0.4820 -0.0150 -0.0923
  503BF       F 9513   5.211   2.594   0.434  0.5775  0.1496  0.1266
  503BF       F 9514   5.010   2.566   0.533 -0.4011  0.0983 -0.0940
  503BF       F 9515   5.158   2.395   0.514  0.4579 -0.3209  0.0993
  504BF       B 9516   1.383   1.844   4.930 -0.0599 -0.3327 -0.4768
  504BF       F 9517   1.383   1.714   4.974 -0.2224 -0.0425 -0.1190
  504BF       F 9518   1.383   1.926   5.041  0.0580 -0.4289  0.8667
  504BF       F 9519   1.495   1.870   4.847 -0.6697 -0.2052 -0.2113
  504BF       F 9520   1.261   1.876   4.864 -0.0719 -0.4569  0.0539
  505BF       B 9521   1.397   3.285   3.787 -0.2646 -0.6577  0.6195
  505BF       F 9522   1.399   3.393   3.878  0.0817  0.0138 -0.0508
  505BF       F 9523   1.373   3.337   3.656 -0.0981 -0.3204 -0.3659
  505BF       F 9524   1.515   3.215   3.782 -0.7195 -0.2988  0.5347
  505BF       F 9525   1.289   3.200   3.805 -0.1658 -0.1501 -0.5160
  506BF       B 9526   2.966   2.897   2.023  0.1187 -0.3356 -0.7497
  506BF       F 9527   2.855   2.945   1.952  0.0443  0.0220  0.2033
  506BF       F 9528   2.980   2.759   2.006 -0.3646 -0.4313  0.4652
  506BF       F 9529   3.083   2.955   1.977  0.2862  0.1038 -0.6714
  506BF       F 9530   2.958   2.934   2.155 -0.1744 -0.4384  0.3735
  507BF       B 9531   3.753   0.978   3.552 -0.7917 -0.6514  0.3566
  507BF       F 9532   3.809   0.862   3.504  0.0159 -0.7185  0.0584
  507BF       F 9533   3.811   1.006   3.675 -0.0786 -0.2284  0.4028
  507BF       F 9534   3.778   1.082   3.465 -0.8561 -0.1773 -0.2012
  507BF       F 9535   3.616   0.955   3.567 -0.4804  0.1179  0.6849
  508BF       B 9536   2.925   3.406   5.100  0.7630 -0.7368  0.2690
  508BF       F 9537   2.910   3.383   4.964 -0.2431 -0.2776 -0.2972
  508BF       F 9538   3.052   3.367   5.131  0.0473 -0.2801 -0.0288
  508BF       F 9539   2.929   3.539   5.134 -0.0680  0.1282 -0.4942
  508BF       F 9540   2.831   3.332   5.174  0.3302 -0.1072 -0.1058
  509BF       B 9541   1.116   1.433   1.837  0.5182  0.2106  0.7026
  509BF       F 9542   1.003   1.353   1.869  0.2396 -0.7365  0.1801
  509BF       F 9543   1.085   1.571   1.843 -0.3255  0.3561 -0.3090
  509BF       F 9544   1.222   1.405   1.926 -0.4451  0.0157 -0.6541
  509BF       F 9545   1.152   1.412   1.699  0.1154 -0.5278  0.2895
  510BF       B 9546   2.676   2.644   2.946  0.2567  0.1098 -0.6000
  510BF       F 9547   2.625   2.557   2.843  0.1225 -0.3785 -0.5181
  510BF       F 9548   2.713   2.568   3.059  0.2551 -0.0807  0.2499
  510BF       F 9549   2.789   2.708   2.899  0.2780  0.8985  0.1063
  510BF       F 9550   2.586   2.739   2.983  0.1321 -0.3369  0.1394
  511BF       B 9551   1.868   2.592   4.696  0.2137  0.3187  0.0693
  511BF       F 9552   1.947   2.624   4.798 -0.1526 -0.0903 -0.3264
  511BF       F 9553   1.742   2.554   4.744 -0.0746  0.4288 -0.0099
  511BF       F 9554   1.861   2.697   4.608  0.5702 -0.0879  0.0258
  511BF       F 9555   1.934   2.491   4.633  0.4636  0.2991  0.1688
  512BF       B 9556   1.595   0.359   4.752  0.2983 -0.4492 -0.2474
  512BF       F 9557   1.472   0.413   4.726  0.2395  0.2384  0.3782
  512BF       F 9558   1.674   0.367   4.641  0.0847  0.3465  0.0962
  512BF       F 9559   1.652   0.417   4.866  0.5507  0.1912 -0.2778
  512BF       F 9560   1.572   0.223   4.774 -0.2627  0.1888 -0.6329
  513BF       B 9561   3.252   2.200   4.471  0.0656  0.8290  0.3043
  513BF       F 9562   3.295   2.311   4.532  0.2733 -0.0957  0.0373
  513BF       F 9563   3.153   2.231   4.379 -0.1779  0.2830  0.0574
  513BF       F 9564   3.361   2.138   4.407  1.0581  0.0926 -0.1766
  513BF       F 9565   3.205   2.105   4.565  0.5034 -0.4136  0.1903
  514BF       B 9566   2.344   4.275   3.842  0.1076  1.1037 -0.0877
  514BF       F 9567   2.325   4.398   3.782 -0.0477 -0.3215  0.3395
  514BF       F 9568   2.258   4.168   3.797  0.7649 -0.5185  0.3174
  514BF       F 9569   2.473   4.236   3.809  0.9102  0.1714  0.1364
  514BF       F 9570   2.341   4.293   3.981  0.1826  0.0676  0.4868
  515BF       B 9571   0.818   2.084   0.836  0.4710 -0.2981 -0.4814
  515BF       F 9572   0.848   2.219   0.823 -0.1304 -0.4677  0.0691
  515BF       F 9573   0.925   2.016   0.786 -0.0455  0.2639  0.7338
  515BF       F 9574   0.803   2.051   0.974  0.0067 -0.1839  0.3297
  515BF       F 9575   0.696   2.055   0.768  0.3404 -0.3584 -0.5555
  516BF       B 9576   2.252   0.776   0.160 -0.4428 -0.1974  0.0984
  516BF       F 9577   2.173   0.692   0.078 -0.3113 -0.3689 -0.4952
  516BF       F 9578   2.299   0.879   0.086 -0.0519 -0.3885  0.1936
  516BF       F 9579   2.165   0.820   0.265  0.0993 -0.5026  0.2163
  516BF       F 9580   2.362   0.701   0.210 -0.5641 -0.1505  0.9528
  517BF       B 9581   3.677   0.945   1.682 -0.1686  0.0609  0.0107
  517BF       F 9582   3.598   0.833   1.671 -0.2756 -0.3007 -0.6314
  517BF       F 9583   3.717   0.967   1.821  0.0519  0.2184  0.8953
  517BF       F 9584   3.799   0.921   1.618  0.0364 -0.1303 -0.3795
  517BF       F 9585   3.604   1.053   1.620  0.0946 -0.0222 -0.1445
  518BF       B 9586   2.006   1.290   3.707 -0.3936  0.2128  0.2057
  518BF       F 9587   2.021   1.422   3.747  0.0969  0.5041  0.1090
  518BF       F 9588   1.912   1.222   3.779  0.1363 -0.1676 -0.1151
  518BF       F 9589   1.971   1.276   3.570  0.2831 -0.5831  0.2819
  518BF       F 9590   2.131   1.230   3.735 -0.0278  0.3076 -0.2507
  519BF       B 9591   0.342   2.350   3.980 -0.2380 -1.3432 -0.5526
  519BF       F 9592   0.401   2.396   4.101 -0.2509  0.3317 -0.3725
  519BF       F 9593   0.406   2.403   3.869  0.1291  0.8466 -0.3623
  519BF       F 9594   0.334   2.211   3.972  0.3995  0.2945 -0.0264
  519BF       F 9595   0.216   2.423   3.978 -0.0538 -0.2181  0.2022
  520BF       B 9596   0.367   2.318   2.021  0.0125  0.0800  1.0828
  520BF       F 9597   0.428   2.194   2.035 -0.2172  0.7869  0.1754
  520BF       F 9598   0.382   2.363   1.890 -0.1699 -0.2123  0.2995
  520BF       F 9599   0.229   2.306   2.055 -0.3578 -0.1156 -0.3391
  520BF       F 9600   0.428   2.412   2.112 -0.3289  0.1211  0.0001
  521BF       B 9601   3.268   3.264   0.760  0.4620  0.0562 -0.1665
  521BF       F 9602   3.294   3.270   0.898  0.2117 -0.0622 -0.1773
  521BF       F 9603   3.390   3.241   0.693 -0.1224  0.1325  0.2965
  521BF       F 9604   3.177   3.168   0.734 -0.3493  0.0858  0.2626
  521BF       F 9605   3.216   3.385   0.715  0.3792 -0.5268 -0.4080
  522BF       B 9606   0.342   4.193   0.803  0.2202  0.1840  0.7525
  522BF       F 9607   0.347   4.140   0.674 -0.6196  0.5044  0.1257
  522BF       F 9608   0.284   4.319   0.801 -0.1608  0.1541 -0.0901
  522BF       F 9609   0.274   4.103   0.887 -0.0676  0.3998  0.4619
  522BF       F 9610   0.476   4.202   0.844  0.2120  0.0722 -0.2968
  523BF       B 9611   3.695   0.724   4.689 -0.1229 -0.0672 -0.2080
  523BF       F 9612   3.755   0.757   4.815  0.2391 -0.0638 -0.0946
  523BF       F 9613   3.680   0.840   4.611  0.3729  0.1525 -0.2568
  523BF       F 9614   3.781   0.646   4.614 -0.3786 -0.1056  0.4562
  523BF       F 9615   3.569   0.655   4.691 -0.0846 -0.5095  0.2898
  524BF       B 9616   0.655   4.074   3.221 -0.0366 -0.4363 -0.2602
  524BF       F 9617   0.612   4.173   3.130  0.2983 -0.5939  0.3694
  524BF       F 9618   0.546   4.006   3.262  0.4763 -0.7029 -0.7100
  524BF       F 9619   0.741   3.988   3.157  0.3825 -0.0428  0.0914
  524BF       F 9620   0.712   4.136   3.330  0.1103  0.2092 -0.0534
  525BF       B 9621   2.044   3.507   1.753 -0.0321 -0.6450  0.3228
  525BF       F 9622   2.157   3.458   1.691  0.2743 -0.6921 -0.8144
  525BF       F 9623   2.062   3.487   1.893  0.5367 -0.1589 -0.0664
  525BF       F 9624   2.016   3.639   1.717  0.0006 -0.0003  0.0164
  525BF       F 9625   1.939   3.430   1.709 -0.0667  0.1004  0.4902
  526BF       B 9626   1.872   4.371   2.736  0.0453  0.2839  0.6897
  526BF       F 9627   1.809   4.429   2.844 -0.3182 -0.2373 -0.0847
  526BF       F 9628   1.856   4.229   2.724 -0.1244 -0.2490 -0.3814
  526BF       F 9629   1.844   4.447   2.620 -0.6082 -0.4586 -0.0212
  526BF       F 9630   2.008   4.386   2.761 -0.2578  0.0832  0.2284
  527BF       B 9631   4.140   3.863   4.141 -0.7015  1.0115 -0.0996
  527BF       F 9632   4.229   3.772   4.085 -0.0891  0.4047 -0.3173
  527BF       F 9633   4.022   3.804   4.186 -0.5712 -0.4362 -0.2641
  527BF       F 9634   4.196   3.936   4.246 -0.0424 -0.0075 -0.5634
  527BF       F 9635   4.110   3.954   4.040 -0.3208 -0.0188  0.0862
  528BF       B 9636   2.572   4.501   3.186 -0.1893 -0.5052  0.1719
  528BF       F 9637   2.594   4.627   3.239  0.2798 -0.3449  0.2722
  528BF       F 9638   2.605   4.404   3.275  0.2574  0.2536 -0.1028
  528BF       F 9639   2.437   4.494   3.158 -0.4958 -0.5843  0.2589
  528BF       F 9640   2.642   4.491   3.066  0.4183  0.2660  0.8258
  529BF       B 9641   0.112   2.786   4.402  0.0586  0.0191 -0.2076
  529BF       F 9642   0.023   2.804   4.297 -0.6821 -0.0626 -0.1688
  529BF       F 9643   0.204   2.894   4.418 -0.1759 -0.1380  0.0748
  529BF       F 9644   0.045   2.773   4.521 -0.6581 -0.2506  0.0002
  529BF       F 9645   0.170   2.666   4.375  0.1718 -0.1063 -0.3077
  530BF       B 9646   4.704   1.490   4.998 -1.0717 -0.1791 -0.3430
  530BF       F 9647   4.628   1.570   5.087 -0.3932  0.5360  0.3528
  530BF       F 9648   4.839   1.474   5.056  0.1202 -0.3492 -0.4483
  530BF       F 9649   4.650   1.359   4.995  0.1940 -0.6086 -0.1732
  530BF       F 9650   4.724   1.552   4.878  0.0176  0.6629  0.2824
  531BF       B 9651   1.423   2.045   1.852 -0.0538 -0.0237  0.1524
  531BF       F 9652   1.410   1.916   1.908 -0.0283  0.5552  0.4767
  531BF       F 9653   1.555   2.086   1.880  0.5650 -0.0326  0.1010
  531BF       F 9654   1.409   2.048   1.712  0.2189 -0.3575  0.0719
  531BF       F 9655   1.339   2.128   1.920 -0.1178  0.1331  0.0886
  532BF       B 9656   1.807   3.864   3.473 -0.0894  0.6503  0.3601
  532BF       F 9657   1.880   3.967   3.405 -0.2120 -0.7163 -0.9975
  532BF       F 9658   1.673   3.903   3.496 -0.1396  0.0298  0.0030
  532BF       F 9659   1.804   3.750   3.393 -0.4002 -0.1941  0.4070
  532BF       F 9660   1.865   3.837   3.593 -0.1713  0.3340  0.2479
  533BF       B 9661   2.216   3.997   5.115 -0.2876 -0.2471  0.2629
  533BF       F 9662   2.118   4.037   5.194  0.3480  0.3525  0.0838
  533BF       F 9663   2.159   3.974   4.994  0.1635 -0.1834 -0.4909
  533BF       F 9664   2.317   4.087   5.098  0.1999  0.0487 -0.4933
  533BF       F 9665   2.266   3.883   5.173  0.6091 -0.0429 -0.0646
  534BF       B 9666   4.977   2.836   3.853  0.0823 -0.0446  0.1301
  534BF       F 9667   4.941   2.965   3.808  0.1245  0.0543 -0.4029
  534BF       F 9668   5.074   2.792   3.767 -0.5939 -0.1439 -0.4529
  534BF       F 9669   5.025   2.836   3.984  0.4849  0.0809 -0.2659
  534BF       F 9670   4.868   2.751   3.856  0.1230  0.0436 -0.3631
  535BF       B 9671   2.453   1.341   3.345 -0.0119 -0.2078 -0.0379
  535BF       F 9672   2.498   1.469   3.313 -0.6208 -0.8807 -0.6870
  535BF       F 9673   2.525   1.248   3.275  0.0489  0.7462  0.3431
  535BF       F 9674   2.446   1.314   3.478 -0.1113  0.2001 -0.7597
  535BF       F 9675   2.321   1.337   3.299  0.0136 -0.4619  0.3934
  536BF       B 9676   2.887   4.089   3.583  0.3286  0.5493 -0.5840
  536BF       F 9677   2.815   3.986   3.647 -0.4036  0.3658  0.2647
  536BF       F 9678   2.795   4.157   3.503 -0.1240 -0.0396  0.0733
  536BF       F 9679   2.927   4.185   3.675 -0.0929  0.4197  0.5405
  536BF       F 9680   2.997   4.039   3.516 -0.5115  0.1432 -0.0410
  537BF       B 9681   1.444   3.281   1.570 -0.2201 -0.1571 -0.5906
  537BF       F 9682   1.395   3.394   1.520  0.0742  0.2155 -0.1277
  537BF       F 9683   1.446   3.186   1.461 -0.3300  0.3415 -0.6821
  537BF       F 9684   1.578   3.298   1.617  0.8200 -0.1791  0.4102
  537BF       F 9685   1.360   3.239   1.672 -0.5184 -0.4164  0.2793
  538BF       B 9686   3.230   4.753   4.712  0.6486 -0.2042 -0.0320
  538BF       F 9687   3.334   4.692   4.643  0.7290  0.6605  0.0933
  538BF       F 9688   3.196   4.874   4.654  0.0614  0.0663  0.1425
  538BF       F 9689   3.109   4.673   4.716 -0.3161 -0.4005  0.1433
  538BF       F 9690   3.278   4.780   4.839  0.0035  0.6248 -0.5773
  539BF       B 9691   1.025   2.196   4.627  0.2275 -0.6439  0.7826
  539BF       F 9692   1.044   2.110   4.519  0.0884  0.2015 -0.2062
  539BF       F 9693   0.915   2.155   4.703  0.3431  0.1791  0.6188
  539BF       F 9694   1.137   2.194   4.710 -0.3008  0.0827 -0.1874
  539BF       F 9695   1.014   2.320   4.571 -0.3661 -0.1267 -0.2423
  540BF       B 9696   1.788   4.571   3.843 -0.6495  0.3218 -0.6310
  540BF       F 9697   1.688   4.516   3.760  0.4567 -0.5817 -0.3759
  540BF       F 9698   1.914   4.567   3.786 -0.5859  0.1038  0.4828
  540BF       F 9699   1.760   4.703   3.862 -0.0699  0.2240  0.6016
  540BF       F 9700   1.784   4.511   3.969  0.4977  0.0707 -0.0598
  541BF       B 9701   1.346   2.585   4.951 -0.5180  0.0248 -0.6879
  541BF       F 9702   1.416   2.697   4.911  0.6475 -0.3106  0.1100
  541BF       F 9703   1.418   2.511   5.040 -0.5019 -0.3333  0.2107
  541BF       F 9704   1.240   2.628   5.019 -0.2532 -0.0962 -0.8360
  541BF       F 9705   1.306   2.524   4.836  0.0364 -0.5858 -0.1586
  542BF       B 9706   4.950   5.036   2.785 -0.3546 -0.5909  0.8824
  542BF       F 9707   4.818   5.016   2.766 -0.5436 -0.2763  0.8269
  542BF       F 9708   5.021   5.036   2.665  0.2218 -0.3414 -0.3416
  542BF       F 9709   4.981   5.152   2.853  0.0359  0.0390  0.0310
  542BF       F 9710   4.993   4.933   2.868 -0.0832  0.5500  0.3066
  543BF       B 9711   0.620   1.022   3.351 -0.5562 -0.4212  0.1605
  543BF       F 9712   0.617   0.959   3.229  0.0549  0.1129 -0.5489
  543BF       F 9713   0.527   1.128   3.348  0.4782 -0.3967 -0.2841
  543BF       F 9714   0.591   0.930   3.454  0.1848  0.0232  0.2508
  543BF       F 9715   0.746   1.075   3.372 -0.0200 -0.6301 -0.8757
  544BF       B 9716   3.295   2.224   3.372  0.7150  0.6766  0.0215
  544BF       F 9717   3.238   2.141   3.277  0.0871  0.1523  0.2527
  544BF       F 9718   3.194   2.310   3.420 -0.0250  0.3571 -0.2119
  544BF       F 9719   3.334   2.139   3.476  0.1786  0.1307 -0.4655
  544BF       F 9720   3.396   2.294   3.312 -0.2902  0.3928 -0.2178
  545BF       B 9721   1.005   3.434   2.189  0.3112 -0.8166 -0.2028
  545BF       F 9722   0.941   3.485   2.301 -0.1569  0.2593 -0.2080
  545BF       F 9723   1.142   3.437   2.221  0.4593  0.2809 -0.0156
  545BF       F 9724   0.960   3.304   2.174  0.1299 -0.5650  0.1525
  545BF       F 9725   0.994   3.502   2.072 -0.2312  0.2528  0.3202
  546BF       B 9726   3.791   0.646   2.375  0.1532 -0.7054 -0.6208
  546BF       F 9727   3.779   0.720   2.495  0.2237  0.4552 -0.4020
  546BF       F 9728   3.847   0.725   2.278 -0.3442  0.3759 -0.0628
  546BF       F 9729   3.874   0.535   2.397  0.1230 -0.0926  0.2293
  546BF       F 9730   3.665   0.609   2.328 -0.0393 -0.0195 -0.6343
  547BF       B 9731   3.480   4.246   1.019  0.2394 -0.1532 -0.7438
  547BF       F 9732   3.462   4.371   1.070 -0.5671 -0.1939 -0.6551
  547BF       F 9733   3.420   4.155   1.107  0.2357  0.2744 -0.3324
  547BF       F 9734   3.409   4.243   0.905  0.1118  0.4197 -0.0356
  547BF       F 9735   3.613   4.217   0.997 -0.2377 -0.3954 -0.4656
  548BF       B 9736   4.189   2.703   4.868  0.1608 -0.2145 -0.0818
  548BF       F 9737   4.095   2.609   4.847 -0.0894 -0.0261 -0.4103
  548BF       F 9738   4.175   2.761   4.991  0.2683  0.0584  0.7231
  548BF       F 9739   4.315   2.645   4.863 -0.2446  0.2626 -0.2071
  548BF       F 9740   4.183   2.801   4.777 -0.1920  0.1084  1.0358
  549BF       B 9741   1.799   3.784   2.218  1.1455  0.4372 -0.5727
  549BF       F 9742   1.853   3.688   2.134  0.5822  0.3210 -0.3325
  549BF       F 9743   1.903   3.835   2.288  0.2449 -0.1014  0.0082
  549BF       F 9744   1.738   3.878   2.140 -0.3022 -0.0467  0.2853
  549BF       F 9745   1.708   3.718   2.300 -0.3698 -0.2827 -0.1211
  550BF       B 9746   2.974   2.467   2.427  0.3643  0.2070  0.3736
  550BF       F 9747   2.955   2.515   2.298 -0.2270  0.1069 -0.1095
  550BF       F 9748   3.105   2.409   2.450  0.4753 -0.0993  0.2933
  550BF       F 9749   2.933   2.563   2.520 -0.0045 -0.1327  0.2384
  550BF       F 9750   2.888   2.363   2.452  0.0633 -0.4970  0.3945
  551BF       B 9751   3.144   2.847   0.338  0.5675  0.6135 -0.2399
  551BF       F 9752   3.257   2.775   0.358  0.7472  0.6954 -0.0619
  551BF       F 9753   3.036   2.765   0.361 -0.0644 -0.3749 -0.0364
  551BF       F 9754   3.142   2.944   0.443  0.0629  0.7091  0.3608
  551BF       F 9755   3.143   2.899   0.207  0.2419  0.3472  0.4810
  552BF       B 9756   0.135   1.375   2.042 -0.5664  0.2236 -0.2906
  552BF       F 9757   0.043   1.472   2.085  0.2766  0.0949  0.3891
  552BF       F 9758   0.070   1.279   1.967  0.4227 -0.1762  0.1774
  552BF       F 9759   0.234   1.439   1.967  0.1190 -0.5136  0.5504
  552BF       F 9760   0.197   1.319   2.150 -0.0891 -0.2020 -0.1532
  553BF       B 9761   1.980   0.072   3.665 -0.1707 -0.8124 -0.0209
  553BF       F 9762   1.913   0.172   3.593 -0.0695 -0.2972  0.1745
  553BF       F 9763   2.052   0.002   3.577 -0.2197 -0.0469 -0.2174
  553BF       F 9764   2.069   0.142   3.756 -0.0305 -0.5361  0.5439
  553BF       F 9765   1.884  -0.002   3.734  0.2629 -0.2543  0.4559
  554BF       B 9766   4.455   0.352   1.742  0.2834 -0.1023  0.7366
  554BF       F 9767   4.493   0.233   1.798  0.0888  0.2223 -0.3954
  554BF       F 9768   4.456   0.334   1.602  0.0338  0.2011  0.0039
  554BF       F 9769   4.338   0.402   1.795 -0.2158  0.4460  0.0501
  554BF       F 9770   4.551   0.446   1.759 -0.2542 -0.0177  0.3616
  555BF       B 9771   1.249   2.766   2.989  0.5102  0.0921  0.4387
  555BF       F 9772   1.199   2.711   3.103  0.9293  0.2411  0.2860
  555BF       F 9773   1.283   2.901   3.008 -0.0550 -0.1891 -0.5693
  555BF       F 9774   1.356   2.692   2.950  0.5987 -0.2404  0.0716
  555BF       F 9775   1.164   2.759   2.879 -0.1267  0.0779  0.2619
  556BF       B 9776   3.577   3.372   3.645  0.4972 -0.6280  0.0421
  556BF       F 9777   3.592   3.236   3.659  0.6447  0.0280 -0.3589
  556BF       F 9778   3.666   3.410   3.546  0.6429 -0.2457 -0.0490
  556BF       F 9779   3.443   3.408   3.617 -0.1912 -0.0496  0.0109
  556BF       F 9780   3.619   3.423   3.771 -0.6462 -0.1875 -0.2742
  557BF       B 9781   1.139   3.642   0.874 -0.4807 -0.1800  0.3375
  557BF       F 9782   1.201   3.563   0.967  0.0415 -0.1198  0.1870
  557BF       F 9783   1.003   3.630   0.890 -0.4824  0.2981 -0.2904
  557BF       F 9784   1.187   3.768   0.893  0.1880  0.3084 -0.1828
  557BF       F 9785   1.185   3.598   0.752 -0.0497  0.0229 -0.0544
  558BF       B 9786   3.559   4.183   3.333 -0.4471 -0.1642 -0.2502
  558BF       F 9787   3.540   4.320   3.325 -0.4019  0.6499 -0.2955
  558BF       F 9788   3.468   4.139   3.424  0.1052  0.1042 -0.3184
  558BF       F 9789   3.547   4.114   3.220  0.3148  0.5880  0.5851
  558BF       F 9790   3.686   4.172   3.382 -0.3719  0.7311  0.1800
  559BF       B 9791   4.591   4.058   3.117  0.1488 -0.5283 -0.0590
  559BF       F 9792   4.501   3.951   3.124 -0.3590 -0.2619 -0.8177
  559BF       F 9793   4.640   4.080   2.993  0.3163  0.0645  0.0443
  559BF       F 9794   4.520   4.170   3.155 -0.0123 -0.3500  0.3457
  559BF       F 9795   4.691   4.047   3.208 -0.4077  0.0148 -0.2939
  560BF       B 9796   5.092   4.104   3.904 -0.3450 -0.7396  0.4786
  560BF       F 9797   5.140   3.976   3.866 -0.2399  0.1653  0.4034
  560BF       F 9798   5.108   4.200   3.800 -0.5074 -0.5800  0.0615
  560BF       F 9799   4.959   4.104   3.927 -0.0676 -0.1011 -0.0515
  560BF       F 9800   5.158   4.139   4.023 -0.8512 -0.1373  0.1153
  561BF       B 9801   1.745   4.879   2.559  0.0504  0.0859  0.3405
  561BF       F 9802   1.669   4.993   2.527  0.1343 -0.2504  0.1628
  561BF       F 9803   1.676   4.774   2.623  0.2763 -0.2750 -0.3148
  561BF       F 9804   1.785   4.819   2.439 -0.2427  0.0144 -0.1207
  561BF       F 9805   1.856   4.924   2.625  0.1765  0.2298  0.2816
  562BF       B 9806   3.810   0.567   3.116  0.4052 -0.3139 -0.6927
  562BF       F 9807   3.906   0.482   3.068 -0.3895 -0.2477  0.1203
  562BF       F 9808   3.683   0.515   3.117  0.1183 -0.0536 -0.1584
  562BF       F 9809   3.841   0.597   3.245 -0.0514 -0.0049  0.0062
  562BF       F 9810   3.810   0.684   3.045  0.3168 -0.1362 -0.5624
  563BF       B 9811   2.846   3.493   3.055 -0.0569 -0.1118 -0.0860
  563BF       F 9812   2.917   3.604   3.003  0.3149 -0.4288  0.1035
  563BF       F 9813   2.780   3.537   3.173  0.9329  0.1036 -0.2612
  563BF       F 9814   2.758   3.432   2.961  0.0850  0.2417 -0.1396
  563BF       F 9815   2.942   3.392   3.091  0.5167  0.5173 -0.3638
  564BF       B 9816   2.727   5.045   4.813 -0.4941  0.9525 -1.8732
  564BF       F 9817   2.683   5.146   4.902  0.2576 -0.0055 -0.1445
  564BF       F 9818   2.868   5.053   4.809  0.0156 -0.2059 -0.2051
  564BF       F 9819   2.690   4.917   4.863 -0.0003 -0.0748 -0.1980
  564BF       F 9820   2.676   5.054   4.681 -0.2904  0.0229  1.1386
  565BF       B 9821   2.618   0.472   4.199 -0.1706 -0.1683 -0.6666
  565BF       F 9822   2.521   0.451   4.106 -0.2824 -0.5018 -0.4834
  565BF       F 9823   2.573   0.574   4.281  0.2020  0.0712  0.1830
  565BF       F 9824   2.640   0.353   4.265 -0.0479 -0.3123  0.0225
  565BF       F 9825   2.739   0.514   4.138 -0.5400 -0.1244 -0.2973
  566BF       B 9826   1.989   1.840   1.734 -0.8103 -0.0661 -0.4250
  566BF       F 9827   2.041   1.958   1.791  0.0602  0.9275  0.6918
  566BF       F 9828   2.067   1.793   1.630 -0.5314  0.1567 -0.1876
  566BF       F 9829   1.982   1.745   1.833 -0.4162  0.0384  0.5536
  566BF       F 9830   1.865   1.861   1.678  0.2944 -0.2197  0.5405
  567BF       B 9831   3.946   0.703   4.131 -0.2733  1.1524  0.2048
  567BF       F 9832   3.888   0.636   4.232 -0.2304  0.4894  0.0515
  567BF       F 9833   4.089   0.685   4.137  0.5027 -0.0617  0.0100
  567BF       F 9834   3.895   0.650   4.012  0.0519  0.6664  0.2549
  567BF       F 9835   3.916   0.839   4.130  0.6807  0.1151  0.2560
  568BF       B 9836   1.999   3.023   3.876  1.1536 -0.3092 -0.6669
  568BF       F 9837   1.876   2.965   3.912  0.3333  0.4151 -0.0369
  568BF       F 9838   2.037   3.115   3.968  0.2344  0.0182  0.4559
  568BF       F 9839   2.085   2.920   3.864  0.0838 -0.4632 -0.1228
  568BF       F 9840   1.976   3.083   3.757  0.0718  0.0025  0.1664
  569BF       B 9841   0.568   3.165   4.241 -0.2156  0.7839  0.1508
  569BF       F 9842   0.669   3.266   4.265 -0.4662 -0.2437  0.2914
  569BF       F 9843   0.575   3.073   4.346 -0.0370  0.2685 -0.4515
  569BF       F 9844   0.442   3.225   4.231 -0.2765 -0.4306  0.2617
  569BF       F 9845   0.598   3.095   4.119 -0.0251  0.3421  0.3829
  570BF       B 9846   3.760   4.744   2.328 -0.4415 -0.1208  0.2815
  570BF       F 9847   3.682   4.791   2.221 -0.0918 -0.0125 -0.0105
  570BF       F 9848   3.825   4.849   2.395  0.2670  0.2926  0.1303
  570BF       F 9849   3.672   4.675   2.413  0.5475 -0.2718  0.0992
  570BF       F 9850   3.866   4.662   2.284  0.4879 -0.4007 -0.0984
  571BF       B 9851   4.345   3.758   0.780 -0.5896  0.2153  0.0288
  571BF       F 9852   4.347   3.641   0.856 -0.3136  0.2316  0.4183
  571BF       F 9853   4.407   3.857   0.856 -0.2500 -0.2440 -0.1041
  571BF       F 9854   4.412   3.738   0.655 -0.5241 -0.1438 -0.0476
  571BF       F 9855   4.213   3.803   0.760 -0.2508  0.0315  0.3676
  572BF       B 9856   2.221   1.315   0.494  0.2988 -0.3479  0.5691
  572BF       F 9857   2.159   1.403   0.402  0.0626  0.6768  0.9866
  572BF       F 9858   2.293   1.382   0.596 -0.1781 -0.1242  0.5667
  572BF       F 9859   2.128   1.232   0.548 -0.0583  0.0346 -0.6862
  572BF       F 9860   2.312   1.232   0.425 -0.1992  0.1602  0.0393
  573BF       B 9861   4.848   1.748   2.352  0.5879 -0.6382  0.3748
  573BF       F 9862   4.934   1.688   2.447  0.3817  0.1804  0.1238
  573BF       F 9863   4.715   1.705   2.356 -0.0511 -0.2951 -0.0214
  573BF       F 9864   4.849   1.884   2.371  0.2882 -0.3167 -0.2128
  573BF       F 9865   4.912   1.723   2.231  0.1671  0.1855 -0.2323
  574BF       B 9866   1.784   3.295   5.017  0.2899  0.1334  1.5976
  574BF       F 9867   1.801   3.433   5.034  0.4825 -0.1884  0.1166
  574BF       F 9868   1.899   3.237   4.954 -0.2047  0.0569 -0.4742
  574BF       F 9869   1.765   3.236   5.144 -0.1549 -0.2964 -0.0505
  574BF       F 9870   1.673   3.268   4.935 -0.1767 -0.0386  0.3095
  575BF       B 9871   0.240   4.346   2.509 -0.1650  0.6667  0.6215
  575BF       F 9872   0.220   4.434   2.409 -0.9665 -0.1535  0.3082
  575BF       F 9873   0.117   4.315   2.571  0.1895 -0.2722 -0.2723
  575BF       F 9874   0.308   4.230   2.462  0.0037  0.0443 -0.1456
  575BF       F 9875   0.327   4.403   2.602  0.5838 -0.1638 -0.1152
  576BF       B 9876   4.645   3.496   3.458 -0.3365  0.3715  0.4529
  576BF       F 9877   4.665   3.599   3.359  0.1612  0.3160 -0.2407
  576BF       F 9878   4.737   3.513   3.561  0.1530  0.0286 -0.6179
  576BF       F 9879   4.512   3.508   3.501 -0.0861  0.3517 -0.4099
  576BF       F 9880   4.664   3.373   3.404  0.1589 -0.4967  1.0274
  577BF       B 9881   0.042   2.280   1.057  0.1877  0.1180 -0.1681
  577BF       F 9882  -0.077   2.234   1.105  0.0141 -0.4737 -0.6104
  577BF       F 9883   0.145   2.279   1.155 -0.4870 -0.2190  0.5187
  577BF       F 9884   0.079   2.198   0.947 -0.3162 -0.0795 -0.3279
  577BF       F 9885   0.018   2.402   1.000  0.2546 -0.1458 -0.5114
  578BF       B 9886   0.143   1.086   4.888 -0.4931  0.3050 -0.6287
  578BF       F 9887   0.008   1.078   4.908 -0.2619 -0.0030  0.3356
  578BF       F 9888   0.208   1.106   5.012  0.0838 -0.0923 -0.0036
  578BF       F 9889   0.195   0.973   4.824  0.1181  0.7204 -0.3612
  578BF       F 9890   0.166   1.197   4.812 -0.2252  0.1343  0.1549
  579BF       B 9891   1.508   1.877   3.430  0.0213  0.0323 -0.1814
  579BF       F 9892   1.403   1.800   3.491 -0.1061 -0.2265  0.2114
  579BF       F 9893   1.630   1.861   3.497  0.1516 -0.0225  0.5286
  579BF       F 9894   1.528   1.833   3.296 -0.3436 -0.5922 -0.3265
  579BF       F 9895   1.479   2.010   3.427  0.0182  0.3196 -0.2449
  580BF       B 9896   1.131   1.489   4.269 -0.0345 -0.3122  0.1154
  580BF       F 9897   1.008   1.459   4.327 -0.2138  0.3615  0.3352
  580BF       F 9898   1.139   1.433   4.132 -0.2055  0.3251 -0.0138
  580BF       F 9899   1.124   1.629   4.260  0.1065  0.0694 -0.0578
  580BF       F 9900   1.231   1.440   4.353  0.3986  0.0651  0.0840
  581BF       B 9901   4.817   0.269   4.881  0.2020 -0.6746  0.0224
  581BF       F 9902   4.854   0.401   4.898  0.5268 -0.0265 -0.2962
  581BF       F 9903   4.756   0.247   4.756 -0.1017 -0.1468  0.2210
  581BF       F 9904   4.935   0.188   4.895  0.5059  0.2911 -0.5314
  581BF       F 9905   4.727   0.234   4.977  0.2813  0.0320 -0.5757
  582BF       B 9906   2.123   2.345   2.634 -0.0810 -0.4849 -0.2153
  582BF       F 9907   2.120   2.273   2.746 -0.1458  0.2364 -0.1102
  582BF       F 9908   2.230   2.433   2.626 -0.6280  0.2569  0.5935
  582BF       F 9909   2.140   2.257   2.529 -0.4244  0.0655  0.0413
  582BF       F 9910   2.003   2.418   2.618 -0.4068 -0.5779  0.5823
  583BF       B 9911   4.686   2.047   3.822  0.1102  0.1262  0.0637
  583BF       F 9912   4.800   2.110   3.875 -0.0219 -0.2364  0.3147
  583BF       F 9913   4.708   1.912   3.821 -0.3618  0.4241  0.7647
  583BF       F 9914   4.572   2.079   3.896 -0.2471  0.2087  0.0532
  583BF       F 9915   4.663   2.093   3.696 -0.2139 -0.3438  0.1392
  584BF       B 9916   4.029   4.210   2.182  0.3827 -0.1449  0.5579
  584BF       F 9917   4.067   4.243   2.307 -0.2127 -0.3932 -0.1099
  584BF       F 9918   4.111   4.105   2.140 -0.6159  0.0932 -0.1474
  584BF       F 9919   3.894   4.169   2.184  0.1028  0.3568 -0.3307
  584BF       F 9920   4.036   4.320   2.098  0.0791  0.0928 -0.4515
  585BF       B 9921   4.110   0.319   3.762 -0.1764 -0.3120 -0.3171
  585BF       F 9922   4.065   0.242   3.870 -0.1812  0.2250  0.5129
  585BF       F 9923   4.171   0.437   3.811 -0.6439  0.5658 -0.3353
  585BF       F 9924   4.199   0.253   3.677  0.2535  0.1698 -0.4442
  585BF       F 9925   3.996   0.360   3.687 -0.7771  0.0598  0.4320
  586BF       B 9926   0.475   4.243   0.066 -0.6247 -0.4364 -0.3550
  586BF       F 9927   0.536   4.257   0.190  0.4158  0.1255 -0.0910
  586BF       F 9928   0.567   4.283  -0.030 -0.3645  0.2766  0.2169
  586BF       F 9929   0.435   4.110   0.048  0.4635 -0.6797 -0.3158
  586BF       F 9930   0.361   4.320   0.069 -0.0872  0.3411  0.3776
  587BF       B 9931   4.727   3.635   4.634 -0.1338  0.1740 -0.0543
  587BF       F 9932   4.807   3.713   4.561  0.1449  0.0016  0.2207
  587BF       F 9933   4.669   3.541   4.548  0.0019  0.0271 -0.0292
  587BF       F 9934   4.794   3.571   4.731  0.0767  0.0855  0.0427
  587BF       F 9935   4.620   3.715   4.691  0.4616 -0.1839  0.6253
  588BF       B 9936   2.880   1.891   3.350 -0.0974  0.8523 -0.3718
  588BF       F 9937   2.930   1.837   3.226 -0.1369 -0.4813 -0.5547
  588BF       F 9938   2.953   1.859   3.465 -0.7633 -0.2363  0.0551
  588BF       F 9939   2.871   2.025   3.328  0.1141 -0.1359 -0.5232
  588BF       F 9940   2.755   1.837   3.376  0.3399  0.3175 -0.3262
  589BF       B 9941   1.475   4.185   1.245 -0.2918  0.6210  0.6752
  589BF       F 9942   1.507   4.055   1.265 -0.7803  0.4701 -0.3264
  589BF       F 9943   1.335   4.193   1.226 -0.2478 -0.2075  0.0043
  589BF       F 9944   1.510   4.263   1.354  0.6687 -0.0391  0.5932
  589BF       F 9945   1.533   4.231   1.130 -0.0080  0.0629 -0.6393
  590BF       B 9946   3.993   4.778   3.231  0.1984  0.6421 -0.1310
  590BF       F 9947   4.116   4.799   3.174  0.2807  0.4302 -0.0498
  590BF       F 9948   3.980   4.645   3.272 -0.0919  0.4952 -0.4681
  590BF       F 9949   3.971   4.862   3.345  0.0118  0.3576 -0.2696
  590BF       F 9950   3.892   4.811   3.143 -0.0068  0.6798  0.3474
  591BF       B 9951   4.618   4.811   3.662 -0.3813 -0.2964 -0.1015
  591BF       F 9952   4.534   4.817   3.554  0.0154  0.3328 -0.2576
  591BF       F 9953   4.727   4.887   3.637 -0.4742  0.2389  0.3277
  591BF       F 9954   4.551   4.844   3.778 -0.4691  0.2094 -0.6603
  591BF       F 9955   4.666   4.683   3.677  0.3438 -0.1247 -0.2367
  592BF       B 9956   4.045   4.025   2.764 -0.3076  0.3802 -0.2455
  592BF       F 9957   4.069   4.131   2.682 -0.1764  0.0770  0.4157
  592BF       F 9958   4.004   3.914   2.687  0.2857  0.0950 -0.3396
  592BF       F 9959   4.164   3.997   2.826  0.0012 -0.0909 -0.0553
  592BF       F 9960   3.953   4.054   2.866 -0.0878  0.3724  0.5664
  593BF       B 9961   4.490   3.031   4.458  0.6097 -0.4153 -0.1889
  593BF       F 9962   4.414   2.929   4.519  0.1128 -0.0814 -0.1893
  593BF       F 9963   4.492   3.152   4.522 -0.4054  0.6871 -0.8239
  593BF       F 9964   4.618   2.982   4.453 -0.9433  0.0192 -0.1146
  593BF       F 9965   4.445   3.039   4.324  0.4976 -0.5889  0.0890
  594BF       B 9966   3.325   3.976   4.176 -0.4758  0.8007 -0.0899
  594BF       F 9967   3.223   4.057   4.117 -0.6621 -0.1512  0.1905
  594BF       F 9968   3.365   4.028   4.297  0.1734  0.2518  0.3292
  594BF       F 9969   3.273   3.841   4.204  0.3668  0.1485  0.0712
  594BF       F 9970   3.429   3.985   4.083  0.3489  0.4634 -0.3698
  595BF       B 9971   2.772   3.644   4.123  0.3382 -0.2693  0.6122
  595BF       F 9972   2.651   3.719   4.149  0.0295  0.1053  0.7714
  595BF       F 9973   2.828   3.619   4.243  0.0494  0.0190 -0.4089
  595BF       F 9974   2.753   3.526   4.058 -0.2555 -0.0114 -0.0205
  595BF       F 9975   2.861   3.730   4.057 -0.3899  0.2800  0.1016
  596BF       B 9976   0.848   0.731   0.827  0.0217  1.2463  0.0851
  596BF       F 9977   0.758   0.676   0.917  0.0509 -0.1026  0.4211
  596BF       F 9978   0.969   0.653   0.823 -0.4909 -0.3724  0.1814
  596BF       F 9979   0.779   0.737   0.704 -0.0023  0.1562 -0.0318
  596BF       F 9980   0.875   0.860   0.859 -0.3158  0.1430 -0.2743
  597BF       B 9981   0.123   3.774   1.974  0.3719 -0.6000 -0.6966
  597BF       F 9982   0.089   3.667   2.054  0.4846 -0.7487 -0.2494
  597BF       F 9983   0.040   3.881   1.995  0.2003  0.2484 -0.4517
  597BF       F 9984   0.251   3.819   2.005 -0.5367 -0.6541 -0.1953
  597BF       F 9985   0.121   3.729   1.843 -0.0106 -0.4435  0.4925
  598BF       B 9986   2.729   0.807   4.713 -0.8617  0.6227  0.6583
  598BF       F 9987   2.755   0.881   4.597  0.3916  0.2781 -0.1348
  598BF       F 9988   2.732   0.889   4.822 -0.1094  0.0771 -0.0802
  598BF       F 9989   2.601   0.756   4.705 -0.6066 -0.0439 -0.4649
  598BF       F 9990   2.829   0.712   4.736  0.1951 -0.3799  0.0447
  599BF       B 9991   0.784   0.007   1.509 -0.3242  0.4213  0.1094
  599BF       F 9992   0.838   0.008   1.382  0.1135 -0.1137 -0.1387
  599BF       F 9993   0.662  -0.064   1.498 -0.2548  0.6291  0.0701
  599BF       F 9994   0.872  -0.056   1.595 -0.6822 -0.7357 -0.4139
  599BF       F 9995   0.754   0.132   1.560 -0.5180 -0.0631 -0.2705
  600BF       B 9996   0.921   4.643   2.779 -0.3459  0.1396  0.5995
  600BF       F 9997   0.943   4.707   2.656 -0.1678  0.0982 -0.4628
  600BF       F 9998   0.981   4.709   2.882 -0.4417  0.3033  0.1285
  600BF       F 9999   0.783   4.639   2.792 -0.1989 -0.1000  0.5891
  600BF       F10000   0.974   4.514   2.759  0.1342 -0.1749  0.2707
  601BF       B10001   1.689   0.367   0.797  0.6938  0.0535 -0.2006
  601BF       F10002   1.692   0.490   0.733  0.3606  0.4849  0.1107
  601BF       F10003   1.679   0.395   0.933  0.2466  0.2693 -0.2482
  601BF       F10004   1.587   0.295   0.749  0.1552  0.1344 -0.0491
  601BF       F10005   1.806   0.310   0.770 -0.1899  0.1129 -0.2839
  602BF       B10006   3.605   3.092   2.825  0.9661 -1.2854 -0.4682
  602BF       F10007   3.735   3.105   2.859 -0.1908  0.0825 -0.0906
  602BF       F10008   3.562   3.194   2.738  0.0819 -0.6337  0.1750
  602BF       F10009   3.587   2.970   2.768  0.3802  0.0256 -0.3418
  602BF       F10010   3.525   3.107   2.942  0.3524 -0.4871  0.6152
  603BF       B10011   0.450   1.529   3.104  0.3457  0.0803  0.5528
  603BF       F10012   0.350   1.477   3.029 -0.0828 -0.5677 -0.1089
  603BF       F10013   0.398   1.618   3.202  0.3728 -0.2350 -0.1862
  603BF       F10014   0.518   1.424   3.163  0.2023  0.2216  0.0230
  603BF       F10015   0.535   1.600   3.020 -0.1406 -0.4587 -0.3403
  604BF       B10016   4.796   0.327   3.389 -0.3024  0.0381 -0.2143
  604BF       F10017   4.915   0.395   3.361  0.4558  0.4067  0.1034
  604BF       F10018   4.679   0.409   3.373 -0.1663 -0.0812  0.0067
  604BF       F10019   4.798   0.220   3.301  0.3286 -0.0252  0.2862
  604BF       F10020   4.809   0.277   3.520 -0.3562 -0.1645 -0.2762
  605BF       B10021   4.283   0.008   0.362  0.3148 -0.1091 -0.0029
  605BF       F10022   4.252  -0.102   0.293 -0.0281 -0.0720  0.1310
  605BF       F10023   4.273  -0.027   0.493  0.4277 -0.1864 -0.3843
  605BF       F10024   4.408   0.056   0.328 -0.9161  0.1365  0.7569
  605BF       F10025   4.192   0.112   0.339 -0.1865  0.2809  0.3290
  606BF       B10026   4.311   3.515   2.673 -0.8458  0.3552 -0.3805
  606BF       F10027   4.189   3.569   2.705 -0.1553 -0.3314 -0.3839
  606BF       F10028   4.316   3.492   2.535  0.4193 -0.3218  0.1298
  606BF       F10029   4.415   3.602   2.710  0.1530 -0.0227  0.1436
  606BF       F10030   4.330   3.398   2.747 -0.2521  0.5390  0.0126
  607BF       B10031   0.377   0.143   1.887  0.4484  0.2835 -0.7059
  607BF       F10032   0.381   0.041   1.793  0.3838 -0.5449 -0.6225
  607BF       F10033   0.421   0.093   2.010 -0.3785 -0.4492 -0.2390
  607BF       F10034   0.462   0.245   1.855  0.6455 -0.8530  0.0639
  607BF       F10035   0.245   0.186   1.894  0.2503 -0.3814 -0.2526
  608BF       B10036   3.673   0.266   0.208  1.1758  0.3841  0.6494
  608BF       F10037   3.781   0.296   0.292  0.0355  0.2874  0.8078
  608BF       F10038   3.579   0.188   0.275 -0.0077  0.3163  0.0606
  608BF       F10039   3.601   0.382   0.176  0.0285 -0.6411  0.2623
  608BF       F10040   3.712   0.194   0.096 -0.4449 -0.8482 -0.1608
  609BF       B10041   3.489   4.052   0.386 -0.4509  0.0181 -0.5555
  609BF       F10042   3.522   4.005   0.520 -0.0476 -0.5887  0.5291
  609BF       F10043   3.449   3.934   0.331  0.1770  0.1348 -0.1133
  609BF       F10044   3.387   4.145   0.396 -0.4182  0.0983  0.7853
  609BF       F10045   3.592   4.110   0.317 -0.2757 -0.0371  0.3661
  610BF       B10046   2.396   3.157   5.081  0.6049  0.9315  0.2442
  610BF       F10047   2.498   3.253   5.074  0.2760 -0.2149  0.0217
  610BF       F10048   2.271   3.214   5.078  0.0460 -0.0827 -0.5086
  610BF       F10049   2.403   3.077   4.971 -0.6646 -0.0369  0.5626
  610BF       F10050   2.405   3.086   5.200  0.1239 -0.1608 -0.5897
  611BF       B10051   1.018   0.183   4.738  0.6337  0.6248 -0.3565
  611BF       F10052   1.095   0.170   4.847 -0.7753  0.3311 -0.1369
  611BF       F10053   1.027   0.059   4.665 -0.1894  0.1319 -0.2404
  611BF       F10054   0.894   0.201   4.790 -0.0526  0.2154  0.2284
  611BF       F10055   1.067   0.277   4.654 -0.1040 -0.0523  0.0504
  612BF       B10056   0.676   0.745   0.225 -0.1016  0.1462  0.5434
  612BF       F10057   0.776   0.784   0.136 -0.7806  0.7820  0.0758
  612BF       F10058   0.552   0.781   0.172  0.0134 -0.8618  0.3205
  612BF       F10059   0.678   0.603   0.248  0.2207 -0.0716  0.1028
  612BF       F10060   0.693   0.804   0.351  0.4661  0.2490 -0.6533
  613BF       B10061   0.290   2.628   5.034  0.5363 -0.4291 -0.1887
  613BF       F10062   0.260   2.574   5.155  0.0894 -0.7228 -0.0660
  613BF       F10063   0.413   2.578   4.989 -0.0898 -0.3518 -0.0387
  613BF       F10064   0.184   2.605   4.948 -0.1149  0.3226  0.8244
  613BF       F10065   0.294   2.763   5.050 -0.1891  0.0388  0.2477
  614BF       B10066   0.897   1.979   2.222  0.1270 -0.5104  0.7977
  614BF       F10067   0.903   1.952   2.357  0.0219  0.0095 -0.3978
  614BF       F10068   0.835   1.871   2.163  0.3086 -0.1803  0.4165
  614BF       F10069   0.822   2.092   2.199  0.2636 -0.1962  0.3111
  614BF       F10070   1.024   1.991   2.168  0.3796  0.8081 -0.0661
  615BF       B10071   0.647   2.836   0.709  0.0914 -0.0603  0.5477
  615BF       F10072   0.679   2.899   0.828 -0.2702 -0.3579  0.2933
  615BF       F10073   0.734   2.879   0.607  0.3601 -0.9512 -0.4637
  615BF       F10074   0.660   2.698   0.740 -0.6023  0.1682  0.0332
  615BF       F10075   0.511   2.872   0.673 -0.0216  0.6661 -0.4070
  616BF       B10076   3.762   1.534   3.247 -0.0569  0.1675 -0.4790
  616BF       F10077   3.868   1.537   3.334  0.1211  0.1640  0.6040
  616BF       F10078   3.813   1.493   3.119  0.6725  0.5061 -0.5226
  616BF       F10079   3.680   1.426   3.293  0.0451 -0.0173 -0.0067
  616BF       F10080   3.688   1.650   3.233 -0.0590 -0.2184  0.5676
  617BF       B10081   4.199   2.629   1.440  0.7901  0.0457  0.4264
  617BF       F10082   4.235   2.758   1.480  0.0898 -0.0464  0.2997
  617BF       F10083   4.075   2.622   1.379 -0.1114  0.1977  0.6882
  617BF       F10084   4.296   2.569   1.362 -0.0381 -0.4872 -0.6873
  617BF       F10085   4.186   2.553   1.554 -0.0263  0.2407  0.6123
  618BF       B10086   4.958   3.182   4.921  0.5081 -0.5003  0.2831
  618BF       F10087   5.026   3.080   4.851 -0.2162  0.2796 -0.3439
  618BF       F10088   4.832   3.206   4.859 -0.3358 -0.4707 -0.0649
  618BF       F10089   4.924   3.135   5.046  0.0478 -0.3800  0.1756
  618BF       F10090   5.031   3.296   4.913  0.1215  0.2338 -0.0323
  619BF       B10091   0.586   1.768   1.793 -0.4046 -0.3062  0.7563
  619BF       F10092   0.674   1.681   1.851  0.5439 -0.1743 -0.3813
  619BF       F10093   0.547   1.863   1.887 -0.0996  0.5089  0.1158
  619BF       F10094   0.660   1.830   1.690  0.4638  0.1371  0.8516
  619BF       F10095   0.475   1.710   1.737 -0.2004  0.5168 -0.4895
  620BF       B10096   1.148   3.940   1.945  0.7180  0.5598  0.1669
  620BF       F10097   1.061   3.958   2.049 -0.3649 -0.2485 -0.5078
  620BF       F10098   1.111   3.834   1.856  0.2269  0.4410 -0.3173
  620BF       F10099   1.152   4.056   1.872 -0.1897 -0.2984 -0.0331
  620BF       F10100   1.271   3.914   2.002 -0.3066  0.0437  0.1353
  621BF       B10101   2.048   1.628   3.133  0.0668 -0.1821  0.9160
  621BF       F10102   2.171   1.695   3.107  0.2649  0.7941 -0.3000
  621BF       F10103   1.947   1.726   3.126  0.2491  0.4592  0.2916
  621BF       F10104   2.024   1.530   3.030 -0.6522 -0.0171 -0.0901
  621BF       F10105   2.041   1.572   3.260 -0.2355 -0.0125 -0.0192
  622BF       B10106   5.014   2.575   2.936  0.6735 -0.2342  0.0348
  622BF       F10107   4.881   2.632   2.950 -0.0011  0.3293 -0.0215
  622BF       F10108   5.064   2.575   3.063 -0.4830  0.6231  0.5636
  622BF       F10109   5.009   2.445   2.883 -0.2884  0.0395 -0.3069
  622BF       F10110   5.089   2.652   2.853 -0.0271 -0.0006  0.4872
  623BF       B10111   0.092   3.885   2.788  0.1463 -0.0757 -0.1193
  623BF       F10112   0.006   3.869   2.677 -0.1615  0.2885 -0.3234
  623BF       F10113   0.195   3.975   2.759 -0.0149 -0.6361 -0.0367
  623BF       F10114   0.015   3.912   2.898  0.0728 -0.3868 -0.5481
  623BF       F10115   0.154   3.764   2.808  0.4617  0.2119 -0.2287
  624BF       B10116   4.030   4.806   1.485  0.2770 -0.2475  0.6604
  624BF       F10117   4.010   4.945   1.492  0.0619 -0.3129 -0.6185
  624BF       F10118   3.923   4.751   1.551 -0.0393 -0.3524 -0.0448
  624BF       F10119   4.026   4.763   1.353  0.0141 -0.2034 -0.4082
  624BF       F10120   4.147   4.766   1.546  0.5553  0.8080  0.0128
  625BF       B10121   4.094   1.574   3.788  0.8070 -0.4070 -0.2551
  625BF       F10122   4.082   1.670   3.886  0.2128  0.1619 -0.1860
  625BF       F10123   4.068   1.638   3.670 -0.1664 -0.0666  0.4906
  625BF       F10124   4.223   1.525   3.787 -0.4006  0.0063 -1.0006
  625BF       F10125   3.994   1.477   3.803 -0.1491  0.5783 -0.1222
  626BF       B10126   0.944   3.044   0.254  0.5695 -0.1396 -0.4006
  626BF       F10127   0.878   2.977   0.353  0.0813  0.4105 -0.1962
  626BF       F10128   0.955   2.975   0.136 -0.0934  0.2362  0.0202
  626BF       F10129   0.889   3.170   0.229  0.2149  0.1308  0.3975
  626BF       F10130   1.079   3.055   0.294  0.0017  0.2642 -0.1318
  627BF       B10131   4.653   2.797   3.366  0.0172 -0.0084  0.6027
  627BF       F10132   4.771   2.825   3.428 -0.1821 -0.0350 -0.0014
  627BF       F10133   4.659   2.674   3.300  0.6684  0.2328 -0.2206
  627BF       F10134   4.549   2.791   3.455  0.1401 -0.3303 -0.1774
  627BF       F10135   4.624   2.890   3.268 -0.5910  0.3246  0.4990
  628BF       B10136   2.191   4.195   1.436  0.1195  0.4530 -0.3667
  628BF       F10137   2.127   4.315   1.421 -0.0298 -0.2937  0.5993
  628BF       F10138   2.172   4.141   1.559 -0.4316 -0.1278  0.3133
  628BF       F10139   2.151   4.100   1.346 -0.1730  0.2048  0.3826
  628BF       F10140   2.325   4.210   1.430 -0.0224 -0.4714 -0.2848
  629BF       B10141   2.105   1.329   4.592  0.2102  0.0274 -0.1746
  629BF       F10142   2.224   1.303   4.532 -0.0821 -0.1251  0.1244
  629BF       F10143   2.010   1.245   4.542  0.1572  0.0115 -0.2543
  629BF       F10144   2.117   1.306   4.727  0.5682  0.1418  0.0574
  629BF       F10145   2.068   1.458   4.564 -0.1828 -0.1760 -0.3178
  630BF       B10146   0.279   1.051   2.575 -0.4023 -0.2674 -0.5668
  630BF       F10147   0.396   1.074   2.642 -0.3629 -0.4097  0.6194
  630BF       F10148   0.189   1.009   2.668  0.1826 -0.6739  0.1753
  630BF       F10149   0.238   1.162   2.510 -0.3066  0.0271 -0.1837
  630BF       F10150   0.286   0.946   2.487  0.3360 -0.4408 -0.1894
  631BF       B10151   4.415   1.668   4.343 -0.2190  0.5215 -0.8423
  631BF       F10152   4.350   1.740   4.443 -0.0404  0.1400  0.1000
  631BF       F10153   4.536   1.713   4.307  0.2592  0.2677  0.3029
  631BF       F10154   4.436   1.538   4.386  0.2538 -0.5694  0.4915
  631BF       F10155   4.332   1.664   4.239 -0.0768  0.1640 -0.0082
  632BF       B10156   0.580   1.590   0.115  0.2451  0.6335  0.1704
  632BF       F10157   0.635   1.544   0.236 -0.1094 -0.5526 -0.2296
  632BF       F10158   0.545   1.723   0.116  0.0314  0.1519 -0.1759
  632BF       F10159   0.668   1.564   0.008  0.6760 -0.3671 -0.2844
  632BF       F10160   0.464   1.511   0.101  0.3084  0.4360  0.2894
  633BF       B10161   4.415   3.374   3.902 -0.5725  0.1946  0.7565
  633BF       F10162   4.304   3.321   3.836 -0.2280 -0.3336 -0.2437
  633BF       F10163   4.402   3.507   3.928  0.4404  0.0361  0.0862
  633BF       F10164   4.435   3.303   4.023  0.2033 -0.0982  0.0512
  633BF       F10165   4.526   3.352   3.822  0.3515 -0.1058  0.1705
  634BF       B10166   1.926   1.702   0.822 -0.3880 -0.1416 -0.2219
  634BF       F10167   1.797   1.678   0.864 -0.3253  0.0251  0.2740
  634BF       F10168   1.991   1.783   0.910 -0.1698  0.0906 -0.1501
  634BF       F10169   1.997   1.581   0.821 -0.1614 -0.2827 -0.0586
  634BF       F10170   1.931   1.759   0.693 -0.1707  0.2472 -0.2298
  635BF       B10171   4.611   3.702   0.160  0.2435  0.4942 -0.2724
  635BF       F10172   4.652   3.828   0.130 -0.2466  0.4983  0.6782
  635BF       F10173   4.502   3.670   0.081 -0.3420  0.0252  0.2499
  635BF       F10174   4.712   3.611   0.126  0.3856 -0.0591 -0.6284
  635BF       F10175   4.563   3.690   0.288 -0.3748  0.1589  0.3517
  636BF       B10176   5.015   4.654   1.643 -0.4204 -0.0705 -0.3185
  636BF       F10177   5.096   4.768   1.636  0.4224 -0.2327  0.2920
  636BF       F10178   4.904   4.700   1.708 -0.3076 -0.1279  0.0614
  636BF       F10179   4.980   4.619   1.516  0.3378 -0.3957 -0.2336
  636BF       F10180   5.079   4.556   1.720 -0.1438 -0.0768  0.3276
  637BF       B10181   0.529   3.459   2.577  0.2729  0.7470  0.0144
  637BF       F10182   0.493   3.555   2.490  0.2708 -0.0729 -0.3649
  637BF       F10183   0.410   3.431   2.649 -0.3541 -0.0727  0.2493
  637BF       F10184   0.572   3.339   2.514  0.3742 -0.4478 -0.2395
  637BF       F10185   0.636   3.492   2.665  0.4800  0.1569  0.2225
  638BF       B10186   1.929   2.966   2.634 -0.3398 -0.2641  0.0657
  638BF       F10187   2.026   3.046   2.694  0.1646  0.0510  0.6760
  638BF       F10188   1.806   2.991   2.700 -0.0092  0.3202  0.0412
  638BF       F10189   1.919   3.010   2.498 -0.1449 -0.1548 -0.3558
  638BF       F10190   1.971   2.831   2.641  0.4208 -0.4265  0.3201
  639BF       B10191   4.441   2.020   4.965  0.0213 -0.3686 -1.3716
  639BF       F10192   4.326   2.093   4.984 -0.0317 -0.2807  0.1639
  639BF       F10193   4.538   2.097   4.898 -0.0069 -0.0453  0.0074
  639BF       F10194   4.494   1.993   5.089  0.3704  0.0937  0.4143
  639BF       F10195   4.416   1.899   4.906  0.6099  0.6172 -0.0002
  640BF       B10196   3.040   2.796   4.057 -0.1483 -0.0929  0.1989
  640BF       F10197   3.099   2.670   4.054  0.2510 -0.3531 -0.0747
  640BF       F10198   2.918   2.785   4.128 -0.4876 -0.7937  0.1574
  640BF       F10199   3.129   2.878   4.120 -0.6221 -0.4641 -0.2207
  640BF       F10200   3.015   2.836   3.921 -0.2129  0.2689 -0.4548
  641BF       B10201   2.581   2.449   1.519  0.0249  0.2113  0.0750
  641BF       F10202   2.600   2.571   1.467  0.0549 -0.3664 -0.6543
  641BF       F10203   2.704   2.403   1.574 -0.6363  0.4917 -0.1628
  641BF       F10204   2.480   2.437   1.615 -0.6041  0.9068  0.3092
  641BF       F10205   2.548   2.360   1.425 -0.2244 -0.4475  0.3630
  642BF       B10206   1.182   3.205   4.729  0.0489  0.2895  0.1006
  642BF       F10207   1.144   3.084   4.795  0.2581 -0.2084 -0.1449
  642BF       F10208   1.103   3.310   4.780  0.2383 -0.3690 -0.1598
  642BF       F10209   1.313   3.233   4.756 -0.2556  0.3760  0.0545
  642BF       F10210   1.160   3.201   4.595  0.4266  0.0903  0.2940
  643BF       B10211   1.258   4.738   0.012  0.1530  0.1737  0.2703
  643BF       F10212   1.190   4.681  -0.104 -0.4775  0.1638 -0.3795
  643BF       F10213   1.391   4.734  -0.024 -0.2872  0.3590  0.0617
  643BF       F10214   1.222   4.872   0.023  0.1980 -0.1034  0.2515
  643BF       F10215   1.228   4.667   0.126  0.2495  0.5520  0.6164
  644BF       B10216   4.969   3.838   1.300 -0.3341  0.6197  0.6581
  644BF       F10217   4.957   3.754   1.408 -0.2562  0.3169 -0.0947
  644BF       F10218   5.055   3.777   1.206 -0.8761  0.3282 -0.6444
  644BF       F10219   4.855   3.860   1.227 -0.3782 -0.4267 -0.0149
  644BF       F10220   5.020   3.962   1.338 -0.2639  0.1675 -0.6647
  645BF       B10221   1.596   0.467   2.573  0.0651 -0.2258 -0.6913
  645BF       F10222   1.492   0.530   2.507 -0.2994 -0.3800 -0.2385
  645BF       F10223   1.607   0.329   2.541  0.0165  0.0408 -0.2962
  645BF       F10224   1.715   0.532   2.532  0.0183 -0.4645 -0.5114
  645BF       F10225   1.581   0.478   2.706  0.2139 -0.0788  0.3664
  646BF       B10226   0.833   1.412   1.039 -0.3740  0.5738  0.2403
  646BF       F10227   0.735   1.487   0.977 -0.0323 -0.1125 -0.5904
  646BF       F10228   0.787   1.357   1.159  0.4040 -0.5250  0.2673
  646BF       F10229   0.862   1.313   0.949  0.3679 -0.2023 -0.2249
  646BF       F10230   0.955   1.484   1.046  0.0499 -0.4280 -0.0281
  647BF       B10231   4.139   2.957   3.084 -0.2528  0.3378  0.8311
  647BF       F10232   4.043   3.063   3.087 -0.2915  0.0458  0.3763
  647BF       F10233   4.082   2.847   3.010  0.3120  1.0028 -0.1947
  647BF       F10234   4.259   2.994   3.021  0.4391  0.3720 -0.2970
  647BF       F10235   4.161   2.921   3.214  0.4111  0.1332 -0.4263
  648BF       B10236   3.770   0.051   0.886  0.1838 -0.3165 -0.3643
  648BF       F10237   3.681  -0.025   0.961 -0.1452  0.3768 -0.1124
  648BF       F10238   3.793   0.181   0.936  0.1238  0.0435 -0.1356
  648BF       F10239   3.896  -0.007   0.885  0.0580  0.6959 -0.3075
  648BF       F10240   3.720   0.067   0.761 -0.4795 -0.6772 -0.1056
  649BF       B10241   1.904   3.606   2.950  0.7667  0.3602  0.2566
  649BF       F10242   1.967   3.479   2.954  0.1318 -0.4784 -0.1325
  649BF       F10243   2.010   3.691   2.947 -0.6051  0.3821  0.2013
  649BF       F10244   1.819   3.618   2.833  0.4633  0.1957 -0.6990
  649BF       F10245   1.832   3.632   3.064 -0.4210 -0.0374 -0.0900
  650BF       B10246   4.830   4.370   1.319 -0.5810  0.4985  0.6806
  650BF       F10247   4.932   4.339   1.414 -0.2083 -0.3512  0.0371
  650BF       F10248   4.750   4.476   1.375  0.2107 -0.8453 -0.8933
  650BF       F10249   4.880   4.406   1.192  0.0020 -0.7058 -0.2294
  650BF       F10250   4.759   4.248   1.310  0.4933 -0.0134 -0.0444
  651BF       B10251   3.743   2.734   3.535  0.1581  0.5011 -0.0743
  651BF       F10252   3.748   2.631   3.625  0.2437 -0.1611 -0.1938
  651BF       F10253   3.741   2.855   3.610 -0.7937  0.1202 -0.2886
  651BF       F10254   3.852   2.720   3.450  0.3496  0.3036  0.3915
  651BF       F10255   3.630   2.734   3.456 -0.4054  0.0628  0.4752
  652BF       B10256   4.997   2.123   1.583 -0.3209  0.2490 -0.8131
  652BF       F10257   4.886   2.155   1.669  0.1126  0.1786  0.0777
  652BF       F10258   5.004   1.986   1.570  0.4402  0.3856 -0.6236
  652BF       F10259   4.981   2.182   1.460  0.2699  0.5295  0.4618
  652BF       F10260   5.114   2.161   1.646 -0.4562 -0.4642 -0.1617
  653BF       B10261   1.303   0.632   3.514 -1.2901  0.1040 -0.6190
  653BF       F10262   1.229   0.550   3.593  0.3807  0.4959 -0.6198
  653BF       F10263   1.327   0.575   3.384  0.1190  0.0461 -0.6041
  653BF       F10264   1.240   0.750   3.505 -0.4930  0.2348 -0.0572
  653BF       F10265   1.430   0.652   3.577 -0.1966  0.2575 -0.3252
  654BF       B10266   0.381   5.026   2.939 -0.0447 -0.1240 -0.6941
  654BF       F10267   0.333   5.146   2.999 -0.1098 -0.3953  0.0905
  654BF       F10268   0.374   5.037   2.805 -0.3537  0.6663  0.2589
  654BF       F10269   0.511   5.006   2.985  0.7765  0.2678  0.2937
  654BF       F10270   0.309   4.915   2.989 -0.2748  0.2567 -0.4911
  655BF       B10271   2.249   0.056   2.994 -0.3312 -0.0143 -0.1106
  655BF       F10272   2.193  -0.068   2.977  0.5553  0.1212 -0.3167
  655BF       F10273   2.150   0.152   3.027  0.1949  0.4190 -0.4357
  655BF       F10274   2.332   0.031   3.104 -0.3543 -0.2112 -0.2426
  655BF       F10275   2.330   0.107   2.891  0.2790 -0.0801 -0.6781
  656BF       B10276   4.015   1.568   1.072  0.2816  0.4968  0.0152
  656BF       F10277   3.959   1.612   0.956 -0.3826  0.3574  0.2831
  656BF       F10278   3.915   1.534   1.166  0.1243  0.2982 -0.2637
  656BF       F10279   4.084   1.448   1.041  0.0202 -0.8510  0.0579
  656BF       F10280   4.102   1.658   1.126  0.4319 -0.1652  0.1439
  657BF       B10281   2.277   0.216   1.527 -0.3056  0.2874  0.3037
  657BF       F10282   2.304   0.098   1.454  0.4110 -0.1998  0.2055
  657BF       F10283   2.158   0.270   1.483 -0.2673  0.1237  0.0740
  657BF       F10284   2.278   0.200   1.665 -0.0919 -0.0641  0.2613
  657BF       F10285   2.378   0.306   1.490  0.7632 -0.4369 -0.0251
  658BF       B10286   5.035   3.325   2.933 -1.0126  0.2073  0.0570
  658BF       F10287   4.952   3.382   3.027 -0.0548  0.4476 -0.3383
  658BF       F10288   5.093   3.210   2.985  0.5523 -0.1177  0.2676
  658BF       F10289   4.964   3.286   2.819 -0.1205  0.5911 -0.2392
  658BF       F10290   5.133   3.411   2.902 -0.3776 -0.2054  0.5521
  659BF       B10291   4.732   3.928   2.194 -0.4382 -0.1019 -0.2693
  659BF       F10292   4.852   3.901   2.261 -0.1837  0.3305  0.3385
  659BF       F10293   4.744   3.923   2.058 -0.1824  0.0159 -0.2529
  659BF       F10294   4.640   3.838   2.230 -0.2334 -0.3471  0.3118
  659BF       F10295   4.689   4.049   2.242 -0.1051 -0.1450  0.5807
  660BF       B10296   1.961   1.032   2.297  0.2566 -0.1306 -0.3742
  660BF       F10297   1.948   0.896   2.307 -0.0893  0.0766  0.0243
  660BF       F10298   1.861   1.077   2.209  0.3680  0.3871  0.1467
  660BF       F10299   1.942   1.081   2.429  0.1825  0.5713  0.0684
  660BF       F10300   2.092   1.059   2.258  0.4061 -0.4704  0.0979
  661BF       B10301   4.520   0.633   2.691 -0.2047 -0.7404 -0.2504
  661BF       F10302   4.551   0.624   2.553  0.2539 -0.1917 -0.4515
  661BF       F10303   4.454   0.516   2.718 -0.4210  0.0472  0.6273
  661BF       F10304   4.639   0.656   2.763 -0.0453  0.3509  0.0246
  661BF       F10305   4.439   0.740   2.717 -0.1394  0.4024  0.1796
  662BF       B10306   0.134   0.784   0.552 -0.4300 -0.3907 -0.6762
  662BF       F10307   0.116   0.733   0.684 -0.2646  0.1167 -0.7129
  662BF       F10308   0.093   0.915   0.554  0.1717 -0.0492 -0.0172
  662BF       F10309   0.268   0.782   0.509 -0.2219  0.1522 -0.1000
  662BF       F10310   0.065   0.702   0.464  0.0750 -0.3641  0.5451
  663BF       B10311   4.674   0.020   4.233  0.4936 -0.4546 -0.1619
  663BF       F10312   4.752  -0.040   4.336 -0.3525  0.0895  0.0377
  663BF       F10313   4.550  -0.047   4.217  0.0287 -0.0053  0.4399
  663BF       F10314   4.645   0.155   4.276 -0.1491 -0.3729  0.5184
  663BF       F10315   4.741   0.027   4.110 -0.1447  0.0014 -0.2752
  664BF       B10316   0.386   0.379   3.404  0.3265  0.1000 -0.1399
  664BF       F10317   0.315   0.426   3.291 -0.3743 -0.1776 -0.7662
  664BF       F10318   0.366   0.244   3.421  0.2940 -0.2449 -0.1634
  664BF       F10319   0.527   0.408   3.397 -0.2595 -0.3730  0.5034
  664BF       F10320   0.333   0.441   3.522 -0.4027  0.1006 -0.6989
  665BF       B10321   3.156   0.308   2.386  1.2134 -0.0077 -0.0472
  665BF       F10322   3.187   0.352   2.514  0.1639  0.2549 -0.0686
  665BF       F10323   3.151   0.168   2.382 -0.2365  0.3968 -0.2151
  665BF       F10324   3.031   0.351   2.346  0.5288 -0.0174 -0.1322
  665BF       F10325   3.252   0.365   2.299  0.0275  0.7328  0.0578
  666BF       B10326   3.144   1.843   0.977  0.4663  0.2491  0.0605
  666BF       F10327   3.125   1.778   0.861 -0.7192  0.6229 -0.2678
  666BF       F10328   3.020   1.836   1.044 -0.1233 -0.1449 -0.1059
  666BF       F10329   3.244   1.791   1.053 -0.6362 -0.4720 -0.0598
  666BF       F10330   3.165   1.980   0.957  0.2760 -0.7247  0.3016
  667BF       B10331   4.788   1.582   3.429 -0.0752  0.3478 -0.1214
  667BF       F10332   4.764   1.466   3.349 -0.6925 -0.0392 -0.8526
  667BF       F10333   4.734   1.697   3.366  0.0705 -0.4028 -0.0394
  667BF       F10334   4.725   1.564   3.560  0.5449  0.0750 -0.0298
  667BF       F10335   4.923   1.598   3.444 -0.0447 -0.3016 -0.4896
  668BF       B10336   3.767   2.645   0.313  0.4916  0.0412 -1.1448
  668BF       F10337   3.760   2.774   0.249 -0.2655  0.3496  0.0970
  668BF       F10338   3.827   2.662   0.435 -0.1367  0.6492  0.4705
  668BF       F10339   3.639   2.598   0.344 -0.1151  0.1427 -0.3963
  668BF       F10340   3.838   2.558   0.239  0.4755  0.4400  0.6638
  669BF       B10341   1.952   0.684   1.490  0.3055  0.7685 -0.7528
  669BF       F10342   1.866   0.772   1.418 -0.0068  0.0832 -0.2363
  669BF       F10343   1.882   0.580   1.545  0.3674 -0.4195  0.5347
  669BF       F10344   2.049   0.641   1.399  0.2397 -0.5989 -0.0945
  669BF       F10345   2.016   0.752   1.589 -0.1493  0.4176  0.1363
  670BF       B10346   1.482   5.055   4.047 -0.6203 -0.1469 -0.4236
  670BF       F10347   1.423   5.165   4.108 -0.0573  0.6543 -0.2064
  670BF       F10348   1.508   4.963   4.144  0.1954  0.1744 -0.2525
  670BF       F10349   1.393   5.005   3.951  0.0793 -0.3789  0.3640
  670BF       F10350   1.602   5.093   3.990  0.2559 -0.1279  0.2568
  671BF       B10351   2.346   1.380   1.899 -0.0613 -0.1894  0.7434
  671BF       F10352   2.221   1.442   1.892 -0.4064  0.5763 -0.0168
  671BF       F10353   2.446   1.473   1.872 -0.0042  0.3859  0.3021
  671BF       F10354   2.366   1.322   2.022  0.2368 -0.2215 -0.2111
  671BF       F10355   2.348   1.275   1.803  0.2997  0.0896 -0.1019
  672BF       B10356   2.870   0.619   0.387 -0.2180  0.3334 -0.5706
  672BF       F10357   2.944   0.724   0.439  0.1707 -0.0383 -0.1524
  672BF       F10358   2.898   0.601   0.255 -0.3329 -0.2963  0.5840
  672BF       F10359   2.873   0.491   0.459 -0.4546 -0.9185  0.0334
  672BF       F10360   2.738   0.664   0.394  0.3242 -0.0730 -0.2093
  673BF       B10361   3.898   4.722   3.879  0.9304  0.0177 -0.2873
  673BF       F10362   3.899   4.817   3.777  0.6504  0.6013  0.0631
  673BF       F10363   3.946   4.596   3.842 -0.7737 -0.2796 -0.3108
  673BF       F10364   3.971   4.761   3.990  0.1544  0.1656  0.0288
  673BF       F10365   3.768   4.700   3.911 -0.3519  0.4045 -0.0495
  674BF       B10366   2.277   2.326   2.027  1.1828 -0.6769 -0.5515
  674BF       F10367   2.323   2.368   1.905 -0.4675 -0.1217  0.8289
  674BF       F10368   2.148   2.369   2.049 -0.0369  0.2535 -0.0506
  674BF       F10369   2.282   2.187   2.032  0.7253  0.3076  0.2851
  674BF       F10370   2.358   2.376   2.131 -0.8342  0.2511 -0.3698
  675BF       B10371   0.651   3.520   0.193 -0.6577 -0.2369  0.2907
  675BF       F10372   0.619   3.441   0.078  0.1224 -0.4358  0.3424
  675BF       F10373   0.600   3.461   0.302 -0.4782 -0.1071  0.0587
  675BF       F10374   0.787   3.540   0.213 -0.1535 -0.1410  0.0927
  675BF       F10375   0.591   3.640   0.170  0.3443  0.0343  0.1625
  676BF       B10376   1.988   5.088   5.098 -0.5597  0.3673 -0.4905
  676BF       F10377   1.854   5.107   5.076  1.0142 -0.0426  0.0224
  676BF       F10378   2.058   5.154   4.996 -0.0904  0.6417  0.6525
  676BF       F10379   2.036   5.155   5.212 -0.3538  0.9557  0.2429
  676BF       F10380   2.020   4.955   5.102 -0.4078  0.4697 -0.2922
  677BF       B10381   1.644   1.942   4.466 -0.4443 -0.4063  0.0162
  677BF       F10382   1.667   2.082   4.442 -0.4640 -0.2718 -0.0441
  677BF       F10383   1.509   1.929   4.497 -0.2057 -0.0415 -0.2895
  677BF       F10384   1.682   1.859   4.363 -0.3519  0.7633  0.6221
  677BF       F10385   1.725   1.910   4.575  0.4413  0.2080  0.0933
  678BF       B10386   1.855   2.420   3.366 -0.6482 -0.3737  0.0515
  678BF       F10387   1.719   2.439   3.399  0.3073 -0.0081 -0.0860
  678BF       F10388   1.926   2.343   3.459  0.6557  0.1216 -0.1573
  678BF       F10389   1.860   2.347   3.244  0.1790  0.0641 -0.3042
  678BF       F10390   1.922   2.544   3.357  0.3789 -0.0865  0.2159
  679BF       B10391   1.074   0.322   3.091  0.3688  0.6836 -0.2372
  679BF       F10392   1.136   0.252   2.987 -0.5163 -0.2770  0.2684
  679BF       F10393   0.984   0.242   3.161 -0.3066 -0.4074  0.2109
  679BF       F10394   1.173   0.369   3.172 -0.1887  0.0254 -0.1220
  679BF       F10395   1.007   0.433   3.050 -0.0401 -0.2277 -0.0616
  680BF       B10396   2.673   0.729   2.155  0.3562 -0.1083  0.8360
  680BF       F10397   2.756   0.810   2.237  0.0117  0.0278  0.1014
  680BF       F10398   2.647   0.604   2.211  0.0662 -0.3140 -0.2019
  680BF       F10399   2.554   0.800   2.129 -0.1303  0.3945 -0.3189
  680BF       F10400   2.730   0.704   2.033 -0.1490  0.2644 -0.1822
  681BF       B10401   4.080   0.906   0.074  0.3741 -0.2129 -0.4395
  681BF       F10402   4.060   0.940   0.211  0.2676 -0.0289  0.0838
  681BF       F10403   3.971   0.832   0.036  0.1922  0.2029  0.3989
  681BF       F10404   4.090   1.018  -0.013  0.0951 -0.1861  0.0169
  681BF       F10405   4.190   0.825   0.073 -0.4694 -0.4719  0.6974
  682BF       B10406   4.401   1.579   1.585 -0.1579  0.5252 -1.1470
  682BF       F10407   4.353   1.615   1.710 -0.0055 -0.4135  0.2240
  682BF       F10408   4.343   1.457   1.550  0.1976  0.3630 -0.1831
  682BF       F10409   4.367   1.688   1.508  0.5839 -0.0384 -0.0526
  682BF       F10410   4.538   1.562   1.589  0.2474 -0.2321  0.3920
  683BF       B10411   0.104   0.331   0.955  0.5046  0.1845 -0.0563
  683BF       F10412  -0.011   0.407   0.917  0.1190 -0.4243  0.4500
  683BF       F10413   0.113   0.204   0.896 -0.1980  0.5843 -0.4546
  683BF       F10414   0.214   0.402   0.913 -0.5974 -0.3102 -0.5126
  683BF       F10415   0.106   0.310   1.097  0.3081 -0.5770 -0.3669
  684BF       B10416   3.582   4.473   4.300  0.0543 -0.8275 -0.1602
  684BF       F10417   3.525   4.539   4.414 -0.0908 -0.0021  0.7364
  684BF       F10418   3.615   4.341   4.332 -0.7397 -0.5669 -0.2681
  684BF       F10419   3.490   4.475   4.199 -0.1043  0.0377  0.0711
  684BF       F10420   3.694   4.538   4.250  0.2099  0.2153 -0.3610
  685BF       B10421   4.376   4.627   4.569 -0.4126 -0.4888 -0.2420
  685BF       F10422   4.363   4.529   4.474  0.2052  0.0062 -0.5897
  685BF       F10423   4.265   4.621   4.653 -0.5355 -0.6238  0.1819
  685BF       F10424   4.502   4.619   4.641  0.0237  0.2695  0.5994
  685BF       F10425   4.379   4.744   4.495 -0.0892  0.2483 -0.4989
  686BF       B10426   4.632   1.167   0.717  0.2879  0.0911  0.4550
  686BF       F10427   4.720   1.196   0.612  0.3825 -0.3013  0.2028
  686BF       F10428   4.655   1.265   0.806 -0.6131  0.4528 -0.0319
  686BF       F10429   4.498   1.180   0.677  0.7150 -0.4116  0.6608
  686BF       F10430   4.656   1.041   0.771 -0.3179  0.0527 -0.4368
  687BF       B10431   3.491   4.557   1.719  1.0812  1.0486  0.1332
  687BF       F10432   3.363   4.542   1.769 -0.5782 -0.2939 -0.0969
  687BF       F10433   3.526   4.454   1.639  0.3295  0.0205  0.1748
  687BF       F10434   3.512   4.681   1.660 -0.2631  0.7274 -0.2619
  687BF       F10435   3.569   4.532   1.830  0.1001  0.1421 -0.1802
  688BF       B10436   2.506   4.625   2.499  0.3624 -0.7071 -0.0492
  688BF       F10437   2.564   4.741   2.456  0.0045  0.5486 -0.0893
  688BF       F10438   2.372   4.627   2.454 -0.2743  0.0731 -0.3731
  688BF       F10439   2.566   4.512   2.447 -0.4919 -0.3790 -0.0014
  688BF       F10440   2.490   4.624   2.640  0.0687 -0.2715  0.1949
  689BF       B10441   4.906   2.660   1.710 -0.1116  0.0778  0.2580
  689BF       F10442   4.847   2.677   1.585 -0.1599  0.2520  0.3066
  689BF       F10443   4.816   2.666   1.814 -0.0424 -0.4248  0.1158
  689BF       F10444   4.963   2.530   1.710 -0.3498  0.3593 -0.6308
  689BF       F10445   5.007   2.754   1.727  0.0171  0.1411 -0.3959
  690BF       B10446   3.806   5.111   1.950 -0.0715 -0.8218  0.0231
  690BF       F10447   3.748   5.039   1.853 -0.5285  0.2347 -0.2656
  690BF       F10448   3.944   5.122   1.928  0.2240  0.1885  0.2501
  690BF       F10449   3.754   5.240   1.959  0.0029 -0.2505  0.5664
  690BF       F10450   3.793   5.048   2.078  0.3985 -0.1293  0.0291
  691BF       B10451   1.710   4.758   1.659  0.7417  0.5096 -0.4270
  691BF       F10452   1.662   4.724   1.788  0.1330  0.1093  0.6937
  691BF       F10453   1.623   4.854   1.604 -0.0668  0.2022  0.5730
  691BF       F10454   1.832   4.807   1.672  0.5408  0.0375 -0.2332
  691BF       F10455   1.701   4.650   1.570 -0.1423 -0.0666  0.1410
  692BF       B10456   1.884   4.118   0.806 -0.4243 -0.4165 -0.3325
  692BF       F10457   1.841   4.249   0.796  0.2332  0.1750  0.6010
  692BF       F10458   1.808   4.046   0.715 -0.0125  0.5941 -0.0677
  692BF       F10459   2.022   4.087   0.782  0.2248  0.1215  0.2137
  692BF       F10460   1.856   4.056   0.929 -0.0491 -0.0860  0.0215
  693BF       B10461   2.967   0.154   3.369  0.0431  0.0790  0.4923
  693BF       F10462   2.986   0.098   3.249  0.3941 -0.3218  0.3982
  693BF       F10463   2.900   0.281   3.361  0.3370  0.7101  0.6907
  693BF       F10464   2.884   0.066   3.436  0.5317  0.0876 -0.2285
  693BF       F10465   3.092   0.163   3.430  0.2521 -0.3240 -0.3973
  694BF       B10466   4.923   1.257   4.196  0.2303  0.1235  0.3322
  694BF       F10467   4.913   1.388   4.147  0.0174  0.2154 -0.0959
  694BF       F10468   5.038   1.239   4.266  0.1190 -0.1592  0.4861
  694BF       F10469   4.815   1.236   4.281 -0.1897  0.2386 -0.3789
  694BF       F10470   4.918   1.168   4.086  0.4208  0.6408 -0.3658
  695BF       B10471   1.293   1.976   0.396 -0.4644 -0.6179  0.6490
  695BF       F10472   1.209   2.017   0.288 -0.3736 -0.3047  0.4866
  695BF       F10473   1.412   2.052   0.405 -0.3870  0.5988 -0.0943
  695BF       F10474   1.219   1.981   0.509 -0.2572 -0.6144  0.2003
  695BF       F10475   1.313   1.842   0.377 -0.5609 -0.3406  0.2578
  696BF       B10476   3.360   0.266   4.717 -0.4179  0.5657  0.0485
  696BF       F10477   3.382   0.139   4.660  0.1753 -0.1236  0.6378
  696BF       F10478   3.453   0.284   4.821  0.4792 -0.4701  0.3888
  696BF       F10479   3.375   0.369   4.623  0.2213  0.6260  0.0153
  696BF       F10480   3.232   0.272   4.777 -0.0438 -0.2566 -0.5365
  697BF       B10481   1.507   4.330   3.266 -0.8259 -0.1575 -0.0758
  697BF       F10482   1.453   4.222   3.192 -0.0789 -0.2931 -0.5057
  697BF       F10483   1.524   4.294   3.402 -0.0376  0.1174  0.4858
  697BF       F10484   1.635   4.373   3.231 -0.1613 -0.1365  0.2737
  697BF       F10485   1.422   4.438   3.258  0.1592 -0.4660 -0.7193
  698BF       B10486   4.125   1.445   2.183  0.0593 -0.7748 -0.2065
  698BF       F10487   4.202   1.501   2.286  0.0110 -0.0827  1.0980
  698BF       F10488   3.994   1.467   2.223  0.1075  0.8382 -0.6848
  698BF       F10489   4.145   1.522   2.071 -0.0986 -0.1927 -0.4292
  698BF       F10490   4.163   1.313   2.155 -0.4185 -0.6416 -0.1290
  699BF       B10491   4.036   4.273   0.200  0.2107 -0.0985  0.3397
  699BF       F10492   4.136   4.197   0.143  0.0432 -0.2425 -0.1239
  699BF       F10493   4.083   4.387   0.265  0.4114 -0.0132  0.4112
  699BF       F10494   3.948   4.312   0.096  0.3014  0.0019 -0.0568
  699BF       F10495   3.974   4.197   0.295  0.4269 -0.4344 -0.4296
  700BF       B10496   2.222   0.054   2.085  0.1314  0.8208  0.3840
  700BF       F10497   2.252  -0.019   2.200 -0.4880 -0.2109  0.2914
  700BF       F10498   2.315   0.154   2.078 -0.0694 -0.0046 -0.0786
  700BF       F10499   2.237  -0.029   1.978  0.5384  0.2442  0.0086
  700BF       F10500   2.101   0.114   2.089 -0.0290  0.3856 -0.9797
  701BF       B10501   3.744   1.876   2.330  0.3298  0.6605  0.3070
  701BF       F10502   3.769   1.967   2.431 -0.1065 -0.0644 -1.1767
  701BF       F10503   3.735   1.942   2.213 -0.0052  0.2767  0.3426
  701BF       F10504   3.837   1.771   2.324 -0.3747  0.5827 -0.0273
  701BF       F10505   3.615   1.822   2.352 -0.4047 -0.2319 -0.1070
  702BF       B10506   3.594   3.349   4.286  0.1231  0.2979  0.2193
  702BF       F10507   3.714   3.304   4.340  0.6134  0.1453  0.0076
  702BF       F10508   3.604   3.479   4.243  0.4577  0.0794  0.4968
  702BF       F10509   3.569   3.261   4.181  0.0559 -0.4902  0.7470
  702BF       F10510   3.495   3.333   4.385 -0.0194  0.4199 -0.0616
  703BF       B10511   1.742   4.115   1.749  0.2179  0.0309 -0.1242
  703BF       F10512   1.721   4.064   1.880  0.5881  0.1334  0.0472
  703BF       F10513   1.617   4.165   1.704  0.4114  0.1344  0.4161
  703BF       F10514   1.843   4.220   1.748  0.4633 -0.2019 -0.2500
  703BF       F10515   1.791   4.011   1.668 -0.1259  0.1406  0.3366
  704BF       B10516   1.079   1.430   2.419  0.4034 -0.0906 -0.3395
  704BF       F10517   1.172   1.482   2.334  0.5231 -0.3365  0.3931
  704BF       F10518   0.976   1.522   2.441 -0.0858 -0.5957  0.3802
  704BF       F10519   1.038   1.311   2.367  0.2471  0.1273  0.2787
  704BF       F10520   1.147   1.415   2.542  0.3861 -0.0451  0.4999
  705BF       B10521   3.551   3.974   4.883  0.4304  0.2656 -0.2490
  705BF       F10522   3.436   3.902   4.899  0.1235 -0.5828 -0.7317
  705BF       F10523   3.665   3.900   4.889  0.0698  0.2719 -0.2304
  705BF       F10524   3.542   4.044   4.760  0.4808  0.2347 -0.2818
  705BF       F10525   3.556   4.069   4.983  0.0978  0.1957 -1.0281
  706BF       B10526   2.089   2.027   0.128 -0.2013  0.2011  0.4697
  706BF       F10527   2.182   1.929   0.109  0.1387  0.5551  0.0578
  706BF       F10528   2.064   2.039   0.264 -0.0680  0.0712 -0.2405
  706BF       F10529   2.108   2.150   0.062 -0.3328 -0.0264 -0.1496
  706BF       F10530   1.973   1.981   0.072 -0.3685  0.2870  0.0658
  707BF       B10531   2.400   3.730   0.444  0.0768 -0.9158 -0.2596
  707BF       F10532   2.484   3.659   0.531  0.4207  0.2590  0.4736
  707BF       F10533   2.441   3.708   0.312  0.2498  0.2212  0.0759
  707BF       F10534   2.278   3.688   0.466 -0.2216  0.1442  0.0543
  707BF       F10535   2.409   3.862   0.478 -0.4757 -0.8600  0.6636
  708BF       B10536   2.170   0.128   0.648  0.6281  0.5271 -0.0290
  708BF       F10537   2.239   0.025   0.591 -0.1685 -0.0309 -0.1539
  708BF       F10538   2.159   0.113   0.783  0.1361  0.4983  0.1840
  708BF       F10539   2.239   0.248   0.632 -0.1921 -0.0659  0.0156
  708BF       F10540   2.046   0.141   0.587  0.4778  0.3730  0.1567
  709BF       B10541   2.263   4.344   2.092  0.3262  0.4681 -0.1077
  709BF       F10542   2.270   4.417   2.210 -0.7079  0.3496 -0.1801
  709BF       F10543   2.343   4.224   2.103  0.1662 -0.3166 -0.2535
  709BF       F10544   2.130   4.319   2.047 -0.4654  0.0619  0.0737
  709BF       F10545   2.330   4.424   2.003  0.6866 -0.1278  0.0678
  710BF       B10546   0.796   2.785   3.746 -0.0525 -0.2854  0.2847
  710BF       F10547   0.738   2.667   3.693 -0.2641  0.2632  0.2330
  710BF       F10548   0.854   2.756   3.865  0.4026  0.8167  0.6247
  710BF       F10549   0.890   2.830   3.652 -0.1856  0.7542 -0.8628
  710BF       F10550   0.699   2.887   3.774 -0.5666  0.3642  0.2661
  711BF       B10551   1.569   1.148   1.698  0.1322  0.2901 -0.7999
  711BF       F10552   1.443   1.108   1.643 -0.3598  0.1553  0.4374
  711BF       F10553   1.661   1.054   1.679 -0.2427  0.0963  0.4364
  711BF       F10554   1.612   1.274   1.652 -0.3142 -0.4304 -0.1616
  711BF       F10555   1.551   1.160   1.837 -0.8961  0.1173  0.0491
  712BF       B10556   3.215   1.917   2.673 -1.1856 -0.0962  0.1765
  712BF       F10557   3.350   1.875   2.691 -0.2425 -0.1801 -0.0316
  712BF       F10558   3.169   1.871   2.554 -0.1515  0.3659 -0.8529
  712BF       F10559   3.145   1.869   2.782  0.0963 -0.0144  0.2112
  712BF       F10560   3.223   2.056   2.676 -0.6036  0.5307 -0.3777
  713BF       B10561   4.114   4.303   0.978  0.5275 -0.5565 -0.4258
  713BF       F10562   4.154   4.202   1.070 -0.2933  0.1668 -0.2924
  713BF       F10563   4.092   4.245   0.853 -0.6539  0.3464  0.5093
  713BF       F10564   3.995   4.365   1.014  0.4740  0.1677 -0.3595
  713BF       F10565   4.225   4.394   0.972  0.2287 -0.8464 -0.1121
  714BF       B10566   2.400   0.324   2.563  1.0237  0.5332  0.4771
  714BF       F10567   2.443   0.397   2.668 -0.0748  0.1425 -0.2071
  714BF       F10568   2.363   0.398   2.448  0.2822  0.1113 -0.2796
  714BF       F10569   2.487   0.224   2.518  0.0056  0.1646 -0.5350
  714BF       F10570   2.283   0.260   2.604  0.3831  0.2305  0.3449
  715BF       B10571   2.115   0.075   4.418  0.8361  0.0978 -0.1837
  715BF       F10572   2.211   0.082   4.322 -0.0982  0.0867 -0.1971
  715BF       F10573   2.085   0.205   4.466 -0.0764 -0.1435  0.2029
  715BF       F10574   2.000   0.013   4.367 -0.0825 -0.0389 -0.2114
  715BF       F10575   2.162  -0.004   4.527 -0.1782  0.7701  0.1509
  716BF       B10576   3.879   3.221   1.355 -0.1037 -0.2146 -0.0592
  716BF       F10577   3.752   3.193   1.303  0.1151 -0.4741  0.4437
  716BF       F10578   3.945   3.102   1.380 -0.2285  0.2602 -0.3015
  716BF       F10579   3.954   3.283   1.253  0.0911 -0.1253 -0.1932
  716BF       F10580   3.869   3.301   1.467 -0.0069 -0.4918 -0.2715
  717BF       B10581   0.820   0.417   1.950  0.1990 -0.1273 -0.2904
  717BF       F10582   0.792   0.314   1.861 -0.0859  0.4913  0.0223
  717BF       F10583   0.708   0.442   2.018 -0.1278  0.8107  0.1087
  717BF       F10584   0.914   0.381   2.042  0.1162 -0.1305 -0.2667
  717BF       F10585   0.864   0.529   1.879 -0.6375 -0.0422  0.3229
  718BF       B10586   1.440   2.756   0.441  0.4148 -0.0859  0.0205
  718BF       F10587   1.371   2.729   0.322 -0.5014 -0.3332 -0.0930
  718BF       F10588   1.572   2.756   0.404 -0.4599 -0.2553  0.7408
  718BF       F10589   1.401   2.874   0.493  0.0346 -0.1831  0.2193
  718BF       F10590   1.431   2.648   0.529  0.0502 -0.4651 -0.1480
  719BF       B10591   2.545   3.015   4.387  0.1655 -0.3746 -0.1943
  719BF       F10592   2.582   3.145   4.344 -0.4937 -0.0345 -0.0374
  719BF       F10593   2.581   2.985   4.518  0.1407  0.6599  0.0598
  719BF       F10594   2.409   3.003   4.385 -0.0401 -0.1460 -0.0706
  719BF       F10595   2.594   2.919   4.295 -0.2966  0.5014 -0.0375
  720BF       B10596   2.907   1.183   0.405  0.2510  0.1594 -0.9685
  720BF       F10597   2.869   1.146   0.531  0.1360  0.7311  0.0547
  720BF       F10598   3.012   1.274   0.417 -0.1066 -0.0169  0.0141
  720BF       F10599   2.948   1.067   0.344  0.0041 -0.8706  0.5439
  720BF       F10600   2.804   1.248   0.336  0.3949 -0.2014 -0.3308
  721BF       B10601   0.338   3.608   0.761  0.8083 -0.2803  0.5316
  721BF       F10602   0.228   3.552   0.716 -0.2562  0.1126  0.3573
  721BF       F10603   0.381   3.562   0.881 -0.1747 -0.1236 -0.1276
  721BF       F10604   0.425   3.589   0.660 -0.1263 -0.0611  0.2068
  721BF       F10605   0.310   3.741   0.774  0.2075  0.1624 -0.2777
  722BF       B10606   3.719   3.549   1.932 -0.8949 -0.7769  0.2281
  722BF       F10607   3.679   3.422   1.977 -0.1823 -0.1535 -0.0121
  722BF       F10608   3.628   3.643   1.966  0.4573  0.0149 -0.3742
  722BF       F10609   3.846   3.578   1.991 -0.1854 -0.0084 -0.2878
  722BF       F10610   3.735   3.549   1.792 -0.0826 -0.5404 -0.3668
  723BF       B10611   2.195   3.022   3.190  0.2981 -0.5036 -0.0258
  723BF       F10612   2.278   3.043   3.086 -0.7426 -0.7242 -0.2118
  723BF       F10613   2.116   3.135   3.217 -0.1078 -0.7784  0.0204
  723BF       F10614   2.125   2.908   3.172 -0.1476  0.0120 -0.9683
  723BF       F10615   2.280   3.015   3.299 -0.2067 -0.1129  0.4025
  724BF       B10616   4.017   3.930   1.429 -1.3272 -0.2508 -0.0274
  724BF       F10617   4.149   3.881   1.436  0.0770 -0.8237  0.3397
  724BF       F10618   4.010   4.026   1.328  0.5277 -0.1894 -0.5699
  724BF       F10619   3.924   3.831   1.405  0.1023 -0.3380 -0.5258
  724BF       F10620   3.992   3.987   1.545 -0.0206  0.2543 -0.7340
  725BF       B10621   1.283   2.292   3.841 -0.2950 -0.3725 -0.7112
  725BF       F10622   1.344   2.389   3.919 -0.1900 -0.2129 -0.6234
  725BF       F10623   1.344   2.174   3.872 -0.3713 -0.1252  0.1244
  725BF       F10624   1.149   2.275   3.876 -0.6508 -0.2410 -0.2723
  725BF       F10625   1.292   2.311   3.704 -0.3845 -0.4559 -0.8824
  726BF       B10626   4.156   2.295   3.572  0.5867 -0.7643  0.7377
  726BF       F10627   4.027   2.344   3.592 -0.7353 -0.1020  0.4735
  726BF       F10628   4.156   2.190   3.486  0.1497  0.5298 -0.5761
  726BF       F10629   4.231   2.401   3.517  0.0469 -0.3636 -0.0154
  726BF       F10630   4.203   2.259   3.697  0.1237  0.2743  0.4169
  727BF       B10631   0.845   1.827   3.416  0.0021 -0.6186 -0.1312
  727BF       F10632   0.771   1.882   3.523  0.9007  0.1574 -0.0087
  727BF       F10633   0.922   1.929   3.357  0.0968 -0.2468  0.3004
  727BF       F10634   0.937   1.735   3.459  0.2064  0.0520 -0.0700
  727BF       F10635   0.765   1.766   3.322  0.5051 -0.3297  0.4026
  728BF       B10636   4.514   2.944   0.887  0.8164 -0.2628 -1.0033
  728BF       F10637   4.444   2.825   0.853  0.4545 -0.0700  0.0743
  728BF       F10638   4.650   2.943   0.869 -0.5386  0.8137  0.5930
  728BF       F10639   4.454   3.056   0.827 -0.6426 -0.0060  0.3515
  728BF       F10640   4.503   2.959   1.027 -1.2350 -0.3111 -0.3371
  729BF       B10641   2.933   4.838   4.022 -1.0960  0.2474  0.4001
  729BF       F10642   2.802   4.836   4.063  0.1184 -0.2282 -0.2483
  729BF       F10643   2.985   4.960   4.071  0.4035 -0.0090  0.6560
  729BF       F10644   2.997   4.729   4.084 -0.0170  0.0712  0.1428
  729BF       F10645   2.937   4.820   3.887  0.4281  0.0893  0.2415
  730BF       B10646   3.866   4.703   4.952 -0.0596 -0.1531 -0.6537
  730BF       F10647   3.930   4.822   4.919 -0.0157 -0.3473  0.2465
  730BF       F10648   3.884   4.684   5.086 -0.1709 -0.3182 -0.0250
  730BF       F10649   3.728   4.728   4.939  0.4219 -0.1241 -0.1241
  730BF       F10650   3.910   4.592   4.882 -0.0151  0.3679  0.2578
  731BF       B10651   2.947   0.602   2.802 -0.5199  0.6201  0.7050
  731BF       F10652   2.977   0.615   2.937  0.1458 -0.2114 -0.2745
  731BF       F10653   2.829   0.525   2.780 -0.2146 -0.1505  0.0705
  731BF       F10654   2.935   0.730   2.747 -0.6657  0.7362  0.3320
  731BF       F10655   3.053   0.540   2.734  0.3530 -0.0799  0.2799
  732BF       B10656   2.345   0.907   2.835  0.1417  0.1562 -0.7415
  732BF       F10657   2.427   1.011   2.880 -0.7651 -0.0860 -0.3628
  732BF       F10658   2.233   0.905   2.912  0.4252 -0.1504 -0.3938
  732BF       F10659   2.313   0.931   2.707  0.0275  0.0532 -0.3641
  732BF       F10660   2.413   0.785   2.851  0.2910  0.2510  0.1860
  733BF       B10661   2.513   4.931   3.669  0.3288  0.0088 -0.2212
  733BF       F10662   2.465   5.061   3.682  1.0786 -0.9315 -0.0167
  733BF       F10663   2.651   4.947   3.658 -0.1429 -0.3049  0.2525
  733BF       F10664   2.487   4.845   3.780  0.2213 -0.0805  0.0857
  733BF       F10665   2.464   4.872   3.551  0.2654  0.0502 -0.0134
  734BF       B10666   3.420   3.634   2.837  0.1983 -0.2793 -1.0404
  734BF       F10667   3.514   3.555   2.780 -0.4511 -0.0570 -0.0350
  734BF       F10668   3.458   3.669   2.967  0.5082  0.0147 -0.0245
  734BF       F10669   3.400   3.746   2.766  0.3260  0.5819 -0.1316
  734BF       F10670   3.301   3.563   2.844  0.1785 -0.0191 -0.1256
  735BF       B10671   4.245   1.422   0.340  0.3432 -0.1585  0.1796
  735BF       F10672   4.285   1.316   0.410  0.6342 -0.4845 -0.2561
  735BF       F10673   4.166   1.385   0.233 -0.2210 -0.0679 -0.3329
  735BF       F10674   4.166   1.502   0.424 -0.0086 -0.7534  0.2633
  735BF       F10675   4.355   1.497   0.303 -0.9722 -0.2936  0.3495
  736BF       B10676   0.595   0.983   1.452 -0.3237  0.6391  0.6099
  736BF       F10677   0.717   1.011   1.512  0.2576 -0.0525  0.3468
  736BF       F10678   0.610   0.982   1.314 -0.2711 -0.2670 -0.0933
  736BF       F10679   0.529   0.869   1.504  0.1271 -0.0549  0.4379
  736BF       F10680   0.519   1.093   1.487  0.0558 -0.3566  1.0238
  737BF       B10681   0.437   0.406   2.749 -0.4325 -0.4140 -0.2326
  737BF       F10682   0.505   0.508   2.674  0.2382  0.4327  0.1003
  737BF       F10683   0.490   0.405   2.878 -0.0502  0.0197  0.2543
  737BF       F10684   0.302   0.430   2.761 -0.1677 -0.5145  0.1729
  737BF       F10685   0.468   0.290   2.680 -0.3115 -0.5559  0.1239
  738BF       B10686   2.260   3.658   4.483 -0.3861 -0.2294 -0.0852
  738BF       F10687   2.365   3.672   4.568 -0.2754 -0.0892  0.2273
  738BF       F10688   2.142   3.661   4.558  0.0891  0.2207  0.5107
  738BF       F10689   2.254   3.767   4.396 -0.3705 -0.1179  0.0181
  738BF       F10690   2.272   3.538   4.425 -0.7828  0.1540 -0.5555
  739BF       B10691   5.005   0.919   1.130 -0.3536  0.3505  0.8216
  739BF       F10692   4.932   0.835   1.216 -0.2315 -0.1725  0.1520
  739BF       F10693   4.921   1.003   1.053  0.1095  0.0951  0.0053
  739BF       F10694   5.093   0.995   1.196 -0.2327 -0.0177 -0.1388
  739BF       F10695   5.065   0.831   1.036  0.1832  0.1829 -0.6408
  740BF       B10696   3.014   3.726   0.427 -0.2402  0.6196  0.2172
  740BF       F10697   2.931   3.675   0.334  0.4003 -0.2461  0.0913
  740BF       F10698   3.138   3.665   0.406 -0.1489 -0.5459  0.4494
  740BF       F10699   3.017   3.868   0.409  0.3140  0.4706 -0.7489
  740BF       F10700   2.968   3.689   0.559  0.1976 -0.4300 -0.1128
  741BF       B10701   2.845   3.848   4.780 -0.2491  0.6733  0.6182
  741BF       F10702   2.839   3.743   4.689  0.0751  0.1430 -0.3906
  741BF       F10703   2.881   3.958   4.704 -0.4788  0.0784 -0.5901
  741BF       F10704   2.720   3.879   4.838 -0.1903  0.0696 -0.3582
  741BF       F10705   2.941   3.835   4.884  0.2480  0.1904 -0.2912
  742BF       B10706   5.010   3.240   2.393  0.1234 -0.6091  0.1106
  742BF       F10707   5.043   3.146   2.488  0.1850  0.1743 -0.3311
  742BF       F10708   5.123   3.300   2.347  0.0361  0.1376  0.2837
  742BF       F10709   4.946   3.180   2.285 -0.5042  0.3445  0.1791
  742BF       F10710   4.928   3.347   2.443  0.1828 -0.2216  0.9653
  743BF       B10711   4.359   4.436   1.708  0.4554  0.1652 -0.5834
  743BF       F10712   4.221   4.438   1.748 -0.0880  0.0615 -0.3953
  743BF       F10713   4.378   4.551   1.631 -0.2728 -0.4069 -0.1557
  743BF       F10714   4.438   4.432   1.824 -0.6199  0.1492 -0.2575
  743BF       F10715   4.383   4.323   1.638 -0.3851  0.4939  0.1226
  744BF       B10716   4.607   1.022   1.537  0.7629 -0.7907  0.7477
  744BF       F10717   4.516   0.953   1.612 -0.1956  0.1242  0.3866
  744BF       F10718   4.559   1.147   1.526  0.0149  0.1832  0.1261
  744BF       F10719   4.726   1.026   1.608  0.0342  0.1773  0.0762
  744BF       F10720   4.635   0.969   1.405  0.3612  0.0053 -0.3715
  745BF       B10721   3.519   1.390   1.316 -0.5156 -0.5213 -0.4716
  745BF       F10722   3.451   1.512   1.297 -0.0689  0.5701  0.0957
  745BF       F10723   3.646   1.409   1.256 -0.2224  0.1026  0.0236
  745BF       F10724   3.535   1.379   1.456 -0.4342 -0.3002 -0.0555
  745BF       F10725   3.451   1.277   1.273 -0.2079 -0.6312 -0.5850
  746BF       B10726   3.829   2.772   4.162 -0.1470 -0.0841  0.9913
  746BF       F10727   3.771   2.892   4.183 -0.0873  0.4537  0.3362
  746BF       F10728   3.766   2.676   4.242  0.3626 -0.0527 -0.4302
  746BF       F10729   3.817   2.738   4.023 -0.4604 -0.0996  0.1409
  746BF       F10730   3.962   2.783   4.205 -0.1655 -0.7839 -0.1582
  747BF       B10731   1.562   4.585   4.626 -0.1586  0.3589  0.3997
  747BF       F10732   1.664   4.617   4.534  0.6394  0.3650  0.3398
  747BF       F10733   1.488   4.475   4.579 -0.1675 -0.2361 -0.4621
  747BF       F10734   1.603   4.573   4.759 -0.0506 -0.5365  0.4844
  747BF       F10735   1.479   4.693   4.614 -0.1732  0.0398 -0.0665
  748BF       B10736   4.546   4.899   0.965 -0.7083 -0.4885  0.0910
  748BF       F10737   4.584   4.850   1.091  0.6783  0.2074  0.3154
  748BF       F10738   4.457   4.810   0.910  0.1601 -0.4743 -0.2208
  748BF       F10739   4.478   5.020   0.990  0.3304 -0.5437  0.0117
  748BF       F10740   4.653   4.905   0.874  0.2888  0.1651 -0.2816
  749BF       B10741   3.318   0.867   5.074 -0.5878  0.1229  0.7752
  749BF       F10742   3.437   0.880   5.150  0.8574 -0.1819  0.3676
  749BF       F10743   3.326   0.948   4.956 -0.4824  0.4658 -0.0930
  749BF       F10744   3.306   0.733   5.046  0.3625 -0.2596  0.0017
  749BF       F10745   3.206   0.910   5.151 -0.8938  0.0231  0.1608
  750BF       B10746   3.513   0.357   1.641 -0.6087 -0.0413  0.0865
  750BF       F10747   3.598   0.398   1.539  0.8180 -0.5080  0.3006
  750BF       F10748   3.382   0.349   1.596 -0.1433  0.3358  0.0915
  750BF       F10749   3.545   0.233   1.694 -0.4159 -0.6361  0.5553
  750BF       F10750   3.519   0.456   1.740  0.3730  0.7502  0.8116
  751BF       B10751   0.359   2.028   5.106 -0.9179 -0.2987  0.0482
  751BF       F10752   0.241   1.971   5.146 -0.0780  0.0156  0.0254
  751BF       F10753   0.335   2.136   5.028 -0.6817  0.6234 -0.0364
  751BF       F10754   0.439   2.059   5.218  0.1138  0.3648  0.4798
  751BF       F10755   0.426   1.927   5.035 -0.1696 -0.1725  0.4504
  752BF       B10756   2.646   4.752   1.714 -0.6522 -0.2517  0.7802
  752BF       F10757   2.529   4.801   1.765  0.4327 -0.1149  0.2189
  752BF       F10758   2.759   4.826   1.755  0.1817 -0.8204 -0.3987
  752BF       F10759   2.664   4.618   1.741  0.5370  0.3501  0.2949
  752BF       F10760   2.643   4.772   1.572 -0.0882  0.0229  1.0320
  753BF       B10761   2.197   0.881   4.317  0.4595 -0.4023 -0.2769
  753BF       F10762   2.193   0.774   4.404  0.0202  0.2355  0.4202
  753BF       F10763   2.167   0.843   4.187  0.1878 -0.2274  0.1752
  753BF       F10764   2.096   0.973   4.354 -0.1815 -0.6172 -0.5662
  753BF       F10765   2.317   0.951   4.327  0.1530  0.5809 -0.3658
  754BF       B10766   4.586   2.570   0.368 -0.3367  0.4004 -0.3396
  754BF       F10767   4.593   2.517   0.500  0.3034  0.1698 -0.2815
  754BF       F10768   4.572   2.466   0.267  0.1421 -0.0889 -0.3697
  754BF       F10769   4.484   2.663   0.363 -0.3149  0.4311  0.2872
  754BF       F10770   4.707   2.638   0.342  0.1399 -0.5583  0.2578
  755BF       B10771   1.651   2.814   2.130 -0.1347 -0.1158  0.5362
  755BF       F10772   1.633   2.945   2.088  0.7607  0.0334 -0.7329
  755BF       F10773   1.626   2.739   2.018  0.5954 -0.3568 -0.0555
  755BF       F10774   1.782   2.792   2.177 -0.1087  0.0883 -0.3177
  755BF       F10775   1.560   2.786   2.229  0.3749  0.1454  0.3569
  756BF       B10776   0.317   4.220   1.685 -0.3785 -0.3416  0.0115
  756BF       F10777   0.232   4.224   1.792  0.6656  0.1588  0.4139
  756BF       F10778   0.432   4.304   1.709  0.0626  0.2841 -0.7728
  756BF       F10779   0.368   4.090   1.667 -0.2691  0.3759  0.3229
  756BF       F10780   0.255   4.271   1.569  0.5181  0.0096 -0.2762
  757BF       B10781   4.967   0.114   1.481  0.3536 -0.0883  0.3120
  757BF       F10782   5.005   0.243   1.515  0.3661 -0.0091 -0.5154
  757BF       F10783   4.917   0.113   1.353  0.2984 -1.3905 -0.0563
  757BF       F10784   5.075   0.030   1.487  0.3426 -0.4624  0.2583
  757BF       F10785   4.865   0.058   1.561  0.0771  0.4008  0.5484
  758BF       B10786   2.366   2.313   4.467 -0.5124  0.5344  0.2934
  758BF       F10787   2.421   2.410   4.380  0.4027 -0.0261 -0.3551
  758BF       F10788   2.313   2.373   4.566  0.3863  0.3798  0.2365
  758BF       F10789   2.275   2.232   4.402  0.9300  0.4501  0.1692
  758BF       F10790   2.472   2.230   4.507 -0.0459  0.0675 -0.9078
  759BF       B10791   3.109   4.064   1.626 -0.9297 -0.0950  0.0943
  759BF       F10792   3.152   4.013   1.500  0.0003  0.6207 -0.4600
  759BF       F10793   3.224   4.100   1.702  1.0953 -0.2688  0.6890
  759BF       F10794   3.028   4.171   1.600  0.3690 -0.3116 -0.2971
  759BF       F10795   3.040   3.965   1.709 -0.1059 -0.0740 -0.2222
  760BF       B10796   0.614   0.980   2.060  0.0592  0.7578  1.3218
  760BF       F10797   0.574   1.108   2.030  0.3540  0.1913  0.9035
  760BF       F10798   0.736   0.986   2.128 -0.2700 -0.4334 -0.3500
  760BF       F10799   0.517   0.908   2.137  0.0717 -0.2639 -0.4241
  760BF       F10800   0.628   0.905   1.941  0.7956 -0.1097 -0.4165
  761BF       B10801   4.910   1.685   0.275 -0.0007 -0.2011 -0.5160
  761BF       F10802   5.001   1.718   0.376 -0.0453  0.2519  0.2275
  761BF       F10803   4.828   1.581   0.321 -0.0331  0.0985 -0.6635
  761BF       F10804   4.832   1.795   0.222 -0.0576 -0.1229  0.6032
  761BF       F10805   4.980   1.630   0.170 -0.0279 -0.0437  0.0721
  762BF       B10806   0.795   2.332   0.265  0.2271 -0.1863  0.6306
  762BF       F10807   0.687   2.290   0.185  0.2630  0.1915 -0.7113
  762BF       F10808   0.754   2.440   0.352 -0.6324  0.5434 -0.3141
  762BF       F10809   0.847   2.222   0.341 -0.8274  0.3112  0.0851
  762BF       F10810   0.889   2.379   0.173 -0.1438 -0.3393 -0.2676
  763BF       B10811   2.280   1.665   4.025 -0.9325  1.3849  0.1618
  763BF       F10812   2.165   1.620   3.961  0.4206 -0.7628  0.0468
  763BF       F10813   2.376   1.564   4.029 -0.4001  0.0280  0.5930
  763BF       F10814   2.328   1.774   3.954  0.9689  0.3166  0.6585
  763BF       F10815   2.243   1.703   4.153 -0.1026  0.1308  0.4851
  764BF       B10816   1.019   5.065   3.682 -0.2244 -0.2641  0.2036
  764BF       F10817   0.921   5.062   3.782  0.2930  0.2172 -0.2032
  764BF       F10818   0.962   4.996   3.574  0.4444  0.2194  0.1981
  764BF       F10819   1.026   5.204   3.651  0.0624  0.2985 -0.3243
  764BF       F10820   1.144   5.018   3.714  0.4559 -0.0921  0.0055
  765BF       B10821   2.314   4.501   4.600 -0.1264 -0.4748  0.3791
  765BF       F10822   2.424   4.507   4.515 -0.2054 -0.1879 -0.3037
  765BF       F10823   2.228   4.402   4.562  0.2002  0.4514  0.7137
  765BF       F10824   2.356   4.476   4.730 -0.3440 -0.0266  0.1422
  765BF       F10825   2.243   4.619   4.591 -0.1852  0.0728  0.4519
  766BF       B10826   0.526   2.539   1.460  0.0580  0.0293  0.0332
  766BF       F10827   0.513   2.671   1.423 -0.0159  0.8446  0.2553
  766BF       F10828   0.653   2.501   1.504  0.0824  0.1294  0.0301
  766BF       F10829   0.437   2.515   1.566  0.6136  0.0078 -0.1365
  766BF       F10830   0.487   2.457   1.354 -0.1122 -0.7539  0.6394
  767BF       B10831   1.266   2.533   1.016  0.4289  0.0902 -0.9247
  767BF       F10832   1.331   2.442   0.937  0.1117 -0.1779 -0.2849
  767BF       F10833   1.133   2.544   0.968  0.0767 -1.0262 -0.3780
  767BF       F10834   1.255   2.482   1.144 -0.2797  0.1712  0.3599
  767BF       F10835   1.327   2.653   1.022  0.0408  0.4079  0.1822
  768BF       B10836   4.436   2.155   0.924  0.0177  0.1949 -0.0387
  768BF       F10837   4.505   2.111   1.038  0.0780 -0.0742  0.7422
  768BF       F10838   4.505   2.108   0.811 -0.3405  0.0353 -0.5438
  768BF       F10839   4.308   2.105   0.910 -0.3786 -0.8232 -0.1552
  768BF       F10840   4.436   2.297   0.922  0.2917  0.3996 -0.4218
  769BF       B10841   0.826   2.882   4.661  0.6429  0.2510  0.3633
  769BF       F10842   0.856   2.751   4.617  0.2838  0.4762  0.0545
  769BF       F10843   0.708   2.928   4.608 -0.1701 -0.1822  0.1531
  769BF       F10844   0.801   2.875   4.801  0.4756  0.1767  0.2534
  769BF       F10845   0.930   2.962   4.625  0.0650 -0.2816 -0.0410
  770BF       B10846   0.089   3.805   5.072  0.1653  0.4360 -1.0959
  770BF       F10847   0.087   3.896   4.979 -0.3026 -0.2656  0.2700
  770BF       F10848   0.212   3.790   5.130 -0.9269 -0.6803 -0.5378
  770BF       F10849  -0.010   3.834   5.170  0.2077  0.1449  0.4938
  770BF       F10850   0.059   3.683   5.010  0.3299  0.0645  0.6996
  771BF       B10851   4.915   2.341   4.654 -0.1622 -0.5369 -0.0144
  771BF       F10852   4.831   2.387   4.756  0.3830  0.2932 -0.3825
  771BF       F10853   4.841   2.316   4.534  0.0615 -0.0154 -0.1310
  771BF       F10854   5.015   2.430   4.622 -0.7110  0.4013 -0.0797
  771BF       F10855   4.975   2.223   4.687  0.1829  0.2871 -0.4583
  772BF       B10856   0.180   1.712   3.720 -0.4507 -0.0162 -0.3237
  772BF       F10857   0.225   1.592   3.669  0.1458  0.7473 -0.3523
  772BF       F10858   0.071   1.702   3.807 -0.0714 -0.0274 -0.4037
  772BF       F10859   0.288   1.776   3.787  0.4754  0.1136  0.1386
  772BF       F10860   0.150   1.793   3.612  0.3433 -0.1486  0.0197
  773BF       B10861   3.402   4.862   0.218  0.1823  0.5299  0.2342
  773BF       F10862   3.500   4.783   0.163 -0.0640 -0.1541 -0.1140
  773BF       F10863   3.458   4.969   0.280  0.2001 -0.1874 -0.1210
  773BF       F10864   3.302   4.902   0.129  0.4620  0.0444  0.3533
  773BF       F10865   3.330   4.788   0.313  0.0104  0.3677  0.0576
  774BF       B10866   1.457   4.994   3.082 -0.8806 -0.1376 -0.8449
  774BF       F10867   1.501   5.068   2.973 -0.3097  0.1508  0.1363
  774BF       F10868   1.357   4.914   3.029  0.1225 -0.4204  0.1377
  774BF       F10869   1.570   4.924   3.131 -0.1880  0.3205  0.2391
  774BF       F10870   1.417   5.077   3.189 -0.2269 -0.3287 -0.2197
  775BF       B10871   1.903   3.958   4.165 -0.6234 -0.2651 -0.0234
  775BF       F10872   1.878   3.917   4.292 -0.0696 -0.0982  0.0491
  775BF       F10873   1.810   4.054   4.137 -0.2670 -0.6860  0.2969
  775BF       F10874   2.031   4.016   4.175  0.2101 -0.3964 -0.3481
  775BF       F10875   1.902   3.851   4.078 -0.2123  0.4058 -0.1945
  776BF       B10876   0.315   2.797   2.476  0.1342 -0.4982 -0.1692
  776BF       F10877   0.366   2.925   2.454  0.3531  0.3834  0.2126
  776BF       F10878   0.295   2.715   2.360 -0.0965  0.0802  0.1436
  776BF       F10879   0.397   2.733   2.564  0.1794  0.2542  0.2648
  776BF       F10880   0.196   2.806   2.536 -0.2499  0.0739  0.2275
  777BF       B10881   1.381   3.315   2.619  0.7006 -0.0253  0.5296
  777BF       F10882   1.277   3.342   2.718  0.0579 -0.3617  0.8810
  777BF       F10883   1.365   3.184   2.576  0.1961 -0.1675 -0.1076
  777BF       F10884   1.345   3.398   2.513  0.1112 -0.0385 -0.1573
  777BF       F10885   1.512   3.344   2.663  0.3170  0.0237 -0.2649
  778BF       B10886   3.236   2.279   5.076  0.0989 -0.2197  0.1097
  778BF       F10887   3.366   2.309   5.102  0.8306 -0.3554  0.5232
  778BF       F10888   3.226   2.150   5.023  0.6230 -0.3593  0.0529
  778BF       F10889   3.173   2.276   5.197 -0.3623  0.1281 -0.0124
  778BF       F10890   3.170   2.371   4.995  0.5712  0.3692  0.4464
  779BF       B10891   3.306   4.587   3.524 -0.3040 -0.1589  0.3358
  779BF       F10892   3.202   4.495   3.498  0.0076 -0.4670  0.5155
  779BF       F10893   3.252   4.712   3.565  0.0012  0.3109 -0.3668
  779BF       F10894   3.391   4.547   3.632  0.5577 -0.0144  0.2489
  779BF       F10895   3.376   4.594   3.399 -0.5753 -0.1596  0.1842
  780BF       B10896   2.327   3.120   0.594 -0.2178  0.0657  0.0147
  780BF       F10897   2.300   3.237   0.524  0.5317  0.1630  0.2880
  780BF       F10898   2.226   3.038   0.574  0.3413  0.0805 -0.0697
  780BF       F10899   2.445   3.065   0.559 -0.3305 -0.2585 -0.0952
  780BF       F10900   2.332   3.150   0.730 -0.5284 -0.2491  0.0539
  781BF       B10901   0.477   1.008   4.209  0.3560 -0.2783 -0.4409
  781BF       F10902   0.531   0.884   4.182 -0.1553 -0.2052  0.3209
  781BF       F10903   0.363   0.993   4.290 -0.6924  0.3518 -0.0385
  781BF       F10904   0.578   1.086   4.270 -0.0714  0.0737 -0.5199
  781BF       F10905   0.435   1.065   4.096  0.0213 -0.0239  0.6640
  782BF       B10906   1.405   0.635   0.271 -0.1107  1.0207  0.0130
  782BF       F10907   1.502   0.737   0.265  0.0865 -0.1073 -0.1218
  782BF       F10908   1.348   0.652   0.404  0.2081  0.5747 -0.2753
  782BF       F10909   1.312   0.669   0.180  0.1753  0.1116  0.4795
  782BF       F10910   1.451   0.504   0.251  0.4134 -0.1303 -0.0729
  783BF       B10911   3.155   2.745   3.087  0.2360  0.5257 -0.8754
  783BF       F10912   3.284   2.777   3.133 -0.2363  0.1325  0.4754
  783BF       F10913   3.097   2.857   3.029  0.3552  0.2456 -0.1379
  783BF       F10914   3.162   2.642   2.989  0.3036 -0.0487 -0.5147
  783BF       F10915   3.088   2.699   3.200  0.2871  0.2186 -0.0171
  784BF       B10916   4.779   0.158   0.298 -0.2118 -0.2908 -0.3649
  784BF       F10917   4.712   0.118   0.182  0.0960 -1.1080 -0.2534
  784BF       F10918   4.727   0.077   0.400  0.2482  0.0264  0.1243
  784BF       F10919   4.914   0.135   0.283 -0.6307  0.0141  0.2095
  784BF       F10920   4.768   0.297   0.328  0.3851  0.1001  0.6667
  785BF       B10921   3.969   2.080   4.273  0.6862 -0.3773 -0.3067
  785BF       F10922   3.882   2.170   4.334  0.0056 -0.6560  0.4261
  785BF       F10923   3.901   1.975   4.217  0.7366  0.2685  0.3883
  785BF       F10924   4.036   2.151   4.172 -0.0490 -0.2834 -0.0432
  785BF       F10925   4.057   2.030   4.367  0.2083  0.2128 -0.2773
  786BF       B10926   4.610   0.971   2.277 -0.8142 -0.3351  0.1660
  786BF       F10927   4.718   1.055   2.289 -0.0799 -0.7502  0.4075
  786BF       F10928   4.500   1.035   2.342 -0.0171  0.0412  0.3849
  786BF       F10929   4.584   0.948   2.145 -0.3844  0.5853  0.2473
  786BF       F10930   4.650   0.853   2.339 -0.0159  0.1548  0.5115
  787BF       B10931   1.068   4.591   3.347  0.6793 -0.2690 -0.0659
  787BF       F10932   1.128   4.674   3.252 -0.4283  0.2610 -0.3277
  787BF       F10933   1.151   4.497   3.397  0.0729 -0.1158  0.4338
  787BF       F10934   1.036   4.675   3.450 -0.0702 -0.1841  0.3138
  787BF       F10935   0.952   4.526   3.294 -0.0273  0.2307 -0.4642
  788BF       B10936   4.935   2.303   2.267 -0.6668  0.3576  0.0330
  788BF       F10937   5.038   2.245   2.190  0.5480  0.1945 -0.5952
  788BF       F10938   4.996   2.360   2.371 -0.1681 -0.3329 -0.2264
  788BF       F10939   4.864   2.394   2.189  0.9154  0.1498 -0.0617
  788BF       F10940   4.850   2.209   2.320  0.1957 -0.7753  0.1554
  789BF       B10941   2.472   0.588   0.989 -1.0082  0.7149  0.4366
  789BF       F10942   2.610   0.560   0.973  0.4603 -0.2557 -0.1822
  789BF       F10943   2.427   0.533   1.109 -0.5557  0.0334 -0.0175
  789BF       F10944   2.460   0.727   0.994  0.7691 -0.6129  0.1812
  789BF       F10945   2.400   0.527   0.884 -0.4107  0.6989 -0.1476
  790BF       B10946   2.569   0.633   3.445 -0.0579  0.1902  0.7914
  790BF       F10947   2.632   0.514   3.415 -0.2091  0.2480  0.1476
  790BF       F10948   2.566   0.710   3.333  0.6128  0.1968  0.2865
  790BF       F10949   2.440   0.607   3.488 -0.3998 -0.6731  0.5265
  790BF       F10950   2.639   0.695   3.552 -0.1288  0.0620  0.3436
  791BF       B10951   2.666   4.425   0.792 -0.7749 -0.3680 -0.6162
  791BF       F10952   2.667   4.553   0.851 -0.1377 -0.5260  0.0126
  791BF       F10953   2.671   4.327   0.894  0.0912  0.2922 -0.1184
  791BF       F10954   2.552   4.411   0.712  0.0095  0.5053 -0.4045
  791BF       F10955   2.782   4.419   0.713  0.1596  0.3931 -1.0009
  792BF       B10956   3.247   1.239   2.119 -0.1680 -0.4589  0.1202
  792BF       F10957   3.222   1.370   2.081  0.3864  0.2159  0.1062
  792BF       F10958   3.362   1.181   2.053 -0.0413 -0.0917 -0.2937
  792BF       F10959   3.255   1.228   2.258  0.1177 -0.3214  0.3807
  792BF       F10960   3.130   1.180   2.073 -0.2435  0.5812  0.3217
  793BF       B10961   2.632   3.465   1.263 -0.1179 -0.7307 -0.3468
  793BF       F10962   2.658   3.571   1.347  0.2613  0.0208 -0.1766
  793BF       F10963   2.746   3.401   1.219 -0.0442 -0.0125  0.3417
  793BF       F10964   2.559   3.360   1.321  0.1946 -0.2779 -0.3972
  793BF       F10965   2.571   3.517   1.151 -0.0718  0.0697  0.3938
  794BF       B10966   1.128   4.116   0.427  0.3706 -0.0464  0.0671
  794BF       F10967   1.133   4.065   0.304 -0.0489 -0.7895 -0.4221
  794BF       F10968   1.258   4.119   0.478  0.3195 -0.1368 -0.2790
  794BF       F10969   1.072   4.241   0.429 -0.2218  0.3422 -0.0709
  794BF       F10970   1.042   4.040   0.503  0.1611 -0.2185  0.2722
  795BF       B10971   2.809   2.115   4.018 -0.6273  0.9324 -0.4643
  795BF       F10972   2.727   2.211   4.072  0.1788 -0.4785 -0.1434
  795BF       F10973   2.923   2.174   3.970 -0.6762 -0.2070  0.1565
  795BF       F10974   2.848   2.030   4.121 -0.4407  0.6357 -0.8972
  795BF       F10975   2.748   2.033   3.917  0.1844 -0.4368 -0.6562
  796BF       B10976   0.913   0.778   4.856 -0.3087 -0.1258  0.6311
  796BF       F10977   0.852   0.883   4.927 -0.1215  0.0431 -0.2491
  796BF       F10978   1.035   0.735   4.917  0.0174  0.0622 -0.3200
  796BF       F10979   0.834   0.665   4.853  0.3235  0.5537 -0.1362
  796BF       F10980   0.937   0.813   4.721  0.1052  0.7135 -0.0535
  797BF       B10981   4.159   3.047   0.340 -0.4507 -0.1228  0.1444
  797BF       F10982   4.084   2.931   0.340  0.1258  0.0902 -0.5283
  797BF       F10983   4.230   3.055   0.222  0.0508  0.3469  0.0662
  797BF       F10984   4.061   3.158   0.342 -0.1682  0.2603  0.7798
  797BF       F10985   4.247   3.049   0.449  0.4295  0.0831  0.2795
  798BF       B10986   1.836   0.942   0.546  0.1196 -0.6623 -0.2944
  798BF       F10987   1.878   1.051   0.616 -0.0250  0.4031  0.0405
  798BF       F10988   1.702   0.923   0.579  0.0843 -0.0969  0.2761
  798BF       F10989   1.850   0.963   0.411 -0.4509  0.4336 -0.3650
  798BF       F10990   1.907   0.828   0.581 -0.3552 -0.0123 -0.8155
  799BF       B10991   3.352   1.335   4.317 -0.1159  0.6828 -0.0735
  799BF       F10992   3.397   1.466   4.327  0.4519  0.1969  0.0918
  799BF       F10993   3.217   1.329   4.319 -0.0018 -0.0243  0.9277
  799BF       F10994   3.396   1.273   4.204 -0.0963  0.0645  0.2979
  799BF       F10995   3.401   1.259   4.421 -0.0239  0.6396  0.2602
  800BF       B10996   2.851   1.528   0.082  0.2995 -0.9171 -0.0419
  800BF       F10997   2.807   1.398   0.053 -0.1195 -0.0713  0.2823
  800BF       F10998   2.763   1.595   0.173 -0.6329 -0.1059  0.1688
  800BF       F10999   2.979   1.526   0.135 -0.1070 -0.0604 -0.1866
  800BF       F11000   2.860   1.604  -0.034 -0.1116  0.4353  0.2107
  801BF       B11001   1.640   3.044   3.394  0.1479 -0.2635  0.4428
  801BF       F11002   1.610   3.054   3.527  0.0820 -0.8194  0.3506
  801BF       F11003   1.772   2.983   3.386  0.2463 -0.2885 -0.0756
  801BF       F11004   1.548   2.970   3.321 -0.1336  0.1110  0.5168
  801BF       F11005   1.652   3.169   3.346 -0.3308  0.3563  0.4412
  802BF       B11006   4.811   3.310   0.702 -0.4869 -0.4847 -0.5231
  802BF       F11007   4.937   3.268   0.668 -0.0133  0.1620 -0.0978
  802BF       F11008   4.821   3.379   0.820  0.1026 -0.3098  0.5191
  802BF       F11009   4.768   3.396   0.609  0.7266  0.6328 -0.4960
  802BF       F11010   4.732   3.199   0.707  0.4410 -0.2941  0.5057
  803BF       B11011   0.816   4.054   1.217 -0.2280  0.6630 -0.1449
  803BF       F11012   0.774   3.925   1.182  0.3746 -0.3294  0.1782
  803BF       F11013   0.718   4.130   1.277  0.7110  0.2064  0.3197
  803BF       F11014   0.927   4.050   1.303 -0.5197 -0.6058 -0.2701
  803BF       F11015   0.851   4.117   1.099 -0.0146 -0.0052 -0.1384
  804BF       B11016   4.218   0.249   4.731 -0.2493  0.4556  0.2064
  804BF       F11017   4.253   0.216   4.601  0.5520 -0.0009 -0.1955
  804BF       F11018   4.149   0.148   4.792 -0.0520  0.4050 -1.0311
  804BF       F11019   4.329   0.285   4.808 -0.2014 -0.3179  0.2001
  804BF       F11020   4.133   0.356   4.740 -0.5372  0.0507  0.3863
  805BF       B11021   4.459   0.896   3.457  0.6668  0.6085 -0.6619
  805BF       F11022   4.406   0.972   3.564  0.1202  0.7057 -0.1506
  805BF       F11023   4.579   0.957   3.415 -0.0327  0.0724  0.3647
  805BF       F11024   4.491   0.772   3.502 -0.2709  0.3930 -0.2198
  805BF       F11025   4.358   0.889   3.364  0.1843 -0.2004 -0.4025
  806BF       B11026   0.830   3.717   1.553  0.3978 -0.5154 -0.1122
  806BF       F11027   0.757   3.603   1.571 -0.2691 -0.2628 -0.0805
  806BF       F11028   0.742   3.819   1.519 -0.6109  0.5662  0.5797
  806BF       F11029   0.897   3.748   1.673 -0.4426 -0.6813  0.4382
  806BF       F11030   0.919   3.709   1.449 -0.5223 -0.4726 -0.3796
  807BF       B11031   4.225   1.685   3.060 -0.0604 -0.4976 -1.4364
  807BF       F11032   4.359   1.709   3.081 -0.3248  0.1060  1.1823
  807BF       F11033   4.208   1.576   2.980  0.0421  0.1744 -0.5070
  807BF       F11034   4.167   1.666   3.184 -0.2722 -0.2052  0.1525
  807BF       F11035   4.168   1.793   2.995 -0.4137  0.0603 -0.4026
  808BF       B11036   2.776   1.388   4.383  0.4492 -0.1100  0.2443
  808BF       F11037   2.889   1.403   4.469  0.4932  0.4148  0.3767
  808BF       F11038   2.811   1.415   4.249 -0.4914  0.1178 -0.3920
  808BF       F11039   2.739   1.254   4.386  0.1852  0.1727 -0.5165
  808BF       F11040   2.676   1.479   4.419 -0.1010  0.0783 -0.3007
  809BF       B11041   4.811   4.536   4.985  0.3062 -0.5920  0.1719
  809BF       F11042   4.887   4.424   4.958 -0.1224 -0.0851 -0.2306
  809BF       F11043   4.872   4.657   4.970  0.6266 -0.7006  0.2422
  809BF       F11044   4.697   4.532   4.901  0.2073 -0.3203 -0.5234
  809BF       F11045   4.760   4.529   5.118 -0.2567  1.0076 -0.4833
  810BF       B11046   2.551   1.753   0.492  0.3682 -0.3523  0.3271
  810BF       F11047   2.552   1.678   0.607 -0.2767 -0.3648  0.2073
  810BF       F11048   2.584   1.884   0.520  0.1524 -0.0062 -0.1952
  810BF       F11049   2.658   1.709   0.421  0.5395  0.0925  0.0760
  810BF       F11050   2.432   1.748   0.414 -0.3426  0.1405 -0.2881
  811BF       B11051   3.245   0.472   3.992 -0.3618 -0.2182 -0.3348
  811BF       F11052   3.368   0.413   3.998  0.1053 -0.5265 -0.5433
  811BF       F11053   3.147   0.411   4.081 -0.3500 -0.1024 -0.3263
  811BF       F11054   3.268   0.599   4.037 -0.2399  0.3442 -0.2656
  811BF       F11055   3.197   0.469   3.854  0.2399 -0.1429  0.0306
  812BF       B11056   2.568   2.823   3.767 -0.7177  0.1067  0.4816
  812BF       F11057   2.700   2.837   3.808 -0.2334  0.1681 -0.0784
  812BF       F11058   2.540   2.681   3.755 -0.4647 -0.2011  0.0329
  812BF       F11059   2.484   2.888   3.857 -0.3372  0.7845 -0.1801
  812BF       F11060   2.556   2.889   3.650 -0.1981  0.7683  0.2050
  813BF       B11061   0.818   3.154   1.305  0.3589 -0.8708 -0.2173
  813BF       F11062   0.683   3.119   1.287  0.0197  0.0707  0.2317
  813BF       F11063   0.882   3.166   1.181  0.3502 -0.0552  0.5548
  813BF       F11064   0.819   3.275   1.372 -0.3349  0.0397 -0.7511
  813BF       F11065   0.887   3.055   1.383  0.2162 -0.5829  0.2652
  814BF       B11066   4.119   3.458   4.783  0.4787  0.6511 -0.0889
  814BF       F11067   4.195   3.371   4.702 -0.4462 -0.5413 -0.3874
  814BF       F11068   4.078   3.566   4.710 -0.2419 -0.3604  0.0674
  814BF       F11069   4.002   3.392   4.824  0.2945  0.7345 -0.0471
  814BF       F11070   4.191   3.495   4.895  0.6600 -0.2134 -0.1576
  815BF       B11071   2.718   1.846   4.710  0.1718 -0.4422  0.0187
  815BF       F11072   2.615   1.875   4.798 -0.2308 -0.5045  0.0322
  815BF       F11073   2.758   1.717   4.737  0.2950  0.6119  0.0834
  815BF       F11074   2.672   1.847   4.580 -0.2526  0.4109 -0.0753
  815BF       F11075   2.826   1.934   4.725  0.0933  0.0236 -0.6924
  816BF       B11076   0.225   2.956   1.129 -0.0085  0.0446 -0.4210
  816BF       F11077   0.122   2.998   1.212 -0.1926 -0.2727  0.0001
  816BF       F11078   0.188   2.968   0.997 -0.0368  0.3754 -0.1153
  816BF       F11079   0.327   3.046   1.135  0.1301  0.2574 -0.0692
  816BF       F11080   0.268   2.828   1.165  0.6061 -0.4889  0.5457
  817BF       B11081   0.506   3.211   1.858 -0.1136 -0.2056  0.1352
  817BF       F11082   0.553   3.177   1.735  0.1355  0.0370  0.1063
  817BF       F11083   0.610   3.201   1.947 -0.1341 -0.0444  0.2886
  817BF       F11084   0.471   3.344   1.838  0.1192  0.0831  0.0890
  817BF       F11085   0.409   3.129   1.899 -0.4008 -0.0689  0.1638
  818BF       B11086   2.962   4.818   2.756  0.0269 -0.5771  0.2114
  818BF       F11087   2.981   4.868   2.886 -0.3442 -0.5936 -0.3560
  818BF       F11088   3.088   4.799   2.703 -0.2100  0.4991  0.2813
  818BF       F11089   2.904   4.691   2.768  0.0759 -0.1804  0.0430
  818BF       F11090   2.895   4.908   2.674 -0.1596 -0.4407  0.1745
  819BF       B11091   3.273   1.585   3.739  0.5405  0.0431 -0.0399
  819BF       F11092   3.352   1.515   3.651  0.2511 -0.4392  0.1416
  819BF       F11093   3.278   1.515   3.857 -0.1497 -0.0227  0.4146
  819BF       F11094   3.335   1.710   3.752  0.5364 -0.0289  0.0082
  819BF       F11095   3.137   1.593   3.698 -0.3154  0.3395 -0.4187
  820BF       B11096   4.510   2.784   2.522 -0.3645 -0.6909 -0.0047
  820BF       F11097   4.403   2.701   2.498  0.1459  0.3093  0.0871
  820BF       F11098   4.569   2.741   2.638  0.4766 -0.0998 -0.6126
  820BF       F11099   4.609   2.778   2.420 -0.6813 -0.0168 -0.0546
  820BF       F11100   4.465   2.916   2.533 -0.0266 -0.4775 -0.1330
  821BF       B11101   2.699   3.955   2.376 -0.0357 -0.1307  0.0721
  821BF       F11102   2.835   3.924   2.376 -0.3174  0.4516  0.0316
  821BF       F11103   2.646   3.942   2.501 -0.4157 -0.1706 -0.5788
  821BF       F11104   2.684   4.088   2.340 -0.4677 -0.3006 -0.0165
  821BF       F11105   2.638   3.869   2.287  0.4787  0.1191 -0.0239
  822BF       B11106   1.738   0.864   2.985 -0.2693 -0.2584  0.2872
  822BF       F11107   1.791   0.826   3.105 -0.2849  0.4360  0.1891
  822BF       F11108   1.843   0.885   2.896 -0.0033  0.1768 -0.2890
  822BF       F11109   1.660   0.755   2.947 -0.0683 -0.1779  0.0305
  822BF       F11110   1.662   0.983   2.992 -0.4773  0.3353 -0.4448
  823BF       B11111   4.016   1.169   4.625 -0.7978  0.3234 -0.4523
  823BF       F11112   4.004   1.105   4.744  0.0204 -0.3467  0.0871
  823BF       F11113   3.919   1.260   4.607  0.3425 -0.3518 -0.5283
  823BF       F11114   4.134   1.235   4.611 -0.3808  0.1984  0.2815
  823BF       F11115   4.005   1.086   4.515  0.3665 -0.1989  0.6285
  824BF       B11116   3.037   2.073   0.438  0.6315 -0.1623 -0.1544
  824BF       F11117   3.100   2.020   0.548  0.3591 -0.0659  0.4455
  824BF       F11118   2.927   1.999   0.400 -0.3479  0.1869  0.0905
  824BF       F11119   2.994   2.195   0.484 -0.1859  1.0245  0.3043
  824BF       F11120   3.123   2.086   0.332  0.1800 -0.1353  0.5344
  825BF       B11121   2.488   3.481   3.552 -0.2773  0.4110 -0.1618
  825BF       F11122   2.436   3.416   3.440 -0.1428 -0.0383  0.0647
  825BF       F11123   2.556   3.591   3.509  0.0126  0.5815 -0.3927
  825BF       F11124   2.389   3.526   3.633 -0.2472 -0.4886  0.6731
  825BF       F11125   2.566   3.397   3.629 -0.5615  0.6441 -0.0422
  826BF       B11126   0.990   4.814   4.186 -0.2050  0.4133 -0.8115
  826BF       F11127   1.125   4.810   4.157 -0.1977 -0.1397  0.0312
  826BF       F11128   0.933   4.917   4.124 -0.1011  0.3527  0.1266
  826BF       F11129   0.930   4.692   4.142  0.4505 -0.1988  0.1609
  826BF       F11130   0.972   4.811   4.323 -0.1641 -0.1023  0.1702
  827BF       B11131   3.106   2.216   1.781  0.0186 -0.3940 -0.3164
  827BF       F11132   3.050   2.128   1.874  0.1317 -0.2030  0.1308
  827BF       F11133   3.164   2.149   1.674  0.4356 -0.2121 -0.0153
  827BF       F11134   3.011   2.306   1.735  0.1617  0.2799 -0.5592
  827BF       F11135   3.210   2.292   1.837 -0.7895 -0.4249 -0.1881
  828BF       B11136   0.924   0.803   3.857  0.2176 -0.0685 -0.0777
  828BF       F11137   0.963   0.803   3.986  0.6611  0.1433  0.2033
  828BF       F11138   1.014   0.740   3.774  0.2983 -0.4381  0.2233
  828BF       F11139   0.800   0.735   3.830 -0.4693 -0.0375  0.0309
  828BF       F11140   0.907   0.936   3.812 -0.2052  0.0525  0.1557
  829BF       B11141   0.613   4.004   4.037  0.9134 -0.3996  0.4897
  829BF       F11142   0.666   4.041   4.161  0.1087  0.5860 -0.0142
  829BF       F11143   0.655   3.876   3.995  0.7044 -0.1289  0.6655
  829BF       F11144   0.468   4.012   4.053  0.1829  0.4370  0.6904
  829BF       F11145   0.653   4.102   3.942  0.1525  0.1570 -0.4394
  830BF       B11146   4.948   1.592   1.631 -0.6611  0.8404  0.4545
  830BF       F11147   4.863   1.599   1.737 -0.0662  0.1150  0.6766
  830BF       F11148   5.030   1.475   1.656  0.6070 -0.0056 -0.1080
  830BF       F11149   4.870   1.575   1.521 -0.1481  0.1283  0.1593
  830BF       F11150   5.043   1.694   1.636  0.5806  0.1029  0.4239
  831BF       B11151   1.007   3.793   4.872  0.5993  0.1003 -0.4407
  831BF       F11152   0.891   3.769   4.945  0.3373  0.2538 -0.4502
  831BF       F11153   1.103   3.699   4.884  0.2332  0.1190 -0.0625
  831BF       F11154   0.961   3.809   4.744 -0.2683 -0.2420 -0.1543
  831BF       F11155   1.051   3.918   4.917  0.2296  0.5113  0.8298
  832BF       B11156   2.369   2.979   1.782 -0.0784 -0.0430  0.1239
  832BF       F11157   2.333   2.983   1.920  0.5228  0.5461 -0.0645
  832BF       F11158   2.266   2.923   1.708 -0.4744 -0.0234  0.5335
  832BF       F11159   2.394   3.108   1.735  0.3509 -0.2486  0.3337
  832BF       F11160   2.486   2.908   1.769 -0.2617 -0.6186 -0.2712
  833BF       B11161   1.289   4.185   3.861 -0.4457  0.8770 -0.4791
  833BF       F11162   1.237   4.300   3.806  0.2420 -0.2446  0.2380
  833BF       F11163   1.400   4.217   3.934  0.5527 -0.0965 -0.0609
  833BF       F11164   1.198   4.122   3.955  0.0735  0.2759  0.0903
  833BF       F11165   1.330   4.088   3.770 -0.3361  0.1135  0.2224
  834BF       B11166   3.629   1.083   0.691 -0.4260  0.0406 -0.2273
  834BF       F11167   3.565   1.204   0.667 -0.2426 -0.4676 -0.3864
  834BF       F11168   3.618   1.007   0.572  0.2715 -0.2132 -0.0400
  834BF       F11169   3.764   1.100   0.714  0.4666 -0.2276  0.1279
  834BF       F11170   3.575   1.020   0.805 -0.5804  0.0175  0.2997
  835BF       B11171   2.315   1.412   1.230 -0.4872  0.1510  0.2350
  835BF       F11172   2.397   1.522   1.215  0.5780 -0.4119 -0.1973
  835BF       F11173   2.312   1.371   1.369 -0.3497 -0.1813  0.1240
  835BF       F11174   2.182   1.442   1.194 -0.4743  0.2262  0.1454
  835BF       F11175   2.355   1.308   1.153 -0.0303 -0.3639 -0.1749
  836BF       B11176   1.926   0.669   3.549  0.9976 -0.1007  0.0516
  836BF       F11177   1.993   0.752   3.465 -0.0848  0.0055 -0.0884
  836BF       F11178   2.018   0.603   3.618 -0.1429  0.4006 -0.2113
  836BF       F11179   1.839   0.724   3.636  0.4620 -0.4571 -0.5715
  836BF       F11180   1.859   0.579   3.465 -0.7200  0.8434 -0.0222
  837BF       B11181   1.301   3.668   4.421 -0.3120  0.4970 -0.1253
  837BF       F11182   1.338   3.538   4.446 -0.3579 -0.1968 -0.5532
  837BF       F11183   1.316   3.740   4.534 -0.2136 -0.4824  0.4563
  837BF       F11184   1.376   3.725   4.319  0.0421  0.0398 -0.0829
  837BF       F11185   1.171   3.682   4.380 -0.2554 -0.1355  0.0940
  838BF       B11186   1.317   0.126   0.233 -0.7760  0.0619 -0.0178
  838BF       F11187   1.332   0.106   0.371  0.1326  0.2488 -0.1859
  838BF       F11188   1.286   0.003   0.169 -0.0100 -0.4556  0.1570
  838BF       F11189   1.223   0.221   0.199  0.2228 -0.3240  0.3954
  838BF       F11190   1.446   0.167   0.185  0.2906 -0.4102  0.4713
  839BF       B11191   4.520   0.359   1.083 -0.1701  0.7744 -0.2136
  839BF       F11192   4.480   0.429   0.973  0.3441 -0.1531  0.1107
  839BF       F11193   4.656   0.337   1.082 -0.0843 -0.4269 -0.2977
  839BF       F11194   4.475   0.426   1.195  0.4589 -0.8105 -0.3710
  839BF       F11195   4.448   0.235   1.086 -0.1922  0.0133 -0.2200
  840BF       B11196   0.449   1.973   4.474  0.1476  0.3259  0.1230
  840BF       F11197   0.364   1.891   4.552  0.0310  0.2349  0.1033
  840BF       F11198   0.549   1.889   4.424 -0.1660  0.3512  0.3521
  840BF       F11199   0.384   2.031   4.374 -0.3386  0.1791  0.2390
  840BF       F11200   0.510   2.072   4.553  0.0779  0.4156  0.0472
  841BF       B11201   4.200   0.787   0.674 -0.6750  0.7000  0.2464
  841BF       F11202   4.180   0.705   0.565 -0.2612 -0.2033  0.3137
  841BF       F11203   4.132   0.907   0.652 -0.1386 -0.3292  0.0451
  841BF       F11204   4.153   0.726   0.786 -0.2649  0.1836 -0.0592
  841BF       F11205   4.338   0.798   0.679 -0.3392 -0.5102  0.2141
  842BF       B11206   1.664   0.435   4.087 -0.3173  0.2641  0.0001
  842BF       F11207   1.625   0.406   4.215  0.4943  0.0409 -0.1249
  842BF       F11208   1.711   0.566   4.095 -0.6148 -0.3377 -0.3584
  842BF       F11209   1.764   0.350   4.048  0.2295  0.6844 -0.1636
  842BF       F11210   1.557   0.413   4.007  0.0264  0.1585  0.4703
  843BF       B11211   0.078   0.744   1.656 -0.4202  0.8378 -0.3092
  843BF       F11212   0.007   0.623   1.655 -0.6065  0.5859 -0.7567
  843BF       F11213   0.212   0.709   1.642  0.0292 -0.1063 -0.0502
  843BF       F11214   0.033   0.821   1.549 -0.2387 -0.1774 -0.4354
  843BF       F11215   0.059   0.808   1.778  0.2115  0.2485 -0.4653
  844BF       B11216   0.737   4.083   2.376 -0.6547 -0.8336  0.0445
  844BF       F11217   0.627   4.022   2.432 -0.0918 -0.3279 -0.0784
  844BF       F11218   0.761   4.198   2.452 -0.0265  0.2638 -0.2134
  844BF       F11219   0.848   3.993   2.384 -0.3391 -0.4096  0.1129
  844BF       F11220   0.703   4.117   2.246 -0.4040  0.3300 -0.1926
  845BF       B11221   1.173   1.285   3.346  0.2232  0.0419 -0.0518
  845BF       F11222   1.310   1.306   3.316 -0.0318 -0.4712  0.0489
  845BF       F11223   1.113   1.260   3.227  0.0992  0.1976  0.6938
  845BF       F11224   1.150   1.182   3.441 -0.1166 -0.0663 -0.2035
  845BF       F11225   1.118   1.398   3.401  0.0251 -0.2661 -0.0577
  846BF       B11226   5.100   3.289   1.582  0.0911  0.0203 -0.6135
  846BF       F11227   5.061   3.156   1.581 -0.2788  0.0542  0.1941
  846BF       F11228   5.194   3.307   1.684  0.1072  0.1454  0.5053
  846BF       F11229   5.159   3.323   1.460  0.0855  0.2496 -0.3739
  846BF       F11230   4.991   3.377   1.615 -0.3164  0.1392  0.4402
  847BF       B11231   1.117   2.659   2.425  0.9672  0.4513 -0.4567
  847BF       F11232   1.239   2.620   2.378  0.6595 -0.3019  0.5929
  847BF       F11233   1.112   2.653   2.563 -0.3614  0.0092  0.0775
  847BF       F11234   1.096   2.794   2.397 -0.2086  0.4868 -0.4137
  847BF       F11235   1.011   2.585   2.381  0.0660  0.3775 -0.0865
  848BF       B11236   3.425   1.589   0.065 -0.2244 -0.0752  0.0249
  848BF       F11237   3.561   1.580   0.064  0.0985  0.8665 -0.7885
  848BF       F11238   3.374   1.655   0.179 -0.4183 -0.4736  0.3397
  848BF       F11239   3.389   1.663  -0.049 -0.4939 -0.0758 -0.0778
  848BF       F11240   3.367   1.467   0.067  0.5192 -0.0042 -0.1537
  849BF       B11241   5.088   3.936   3.378  0.8304  0.0753  0.2510
  849BF       F11242   5.209   3.885   3.348 -0.0511 -0.0150 -0.7846
  849BF       F11243   4.985   3.843   3.382  0.1007  0.0339 -0.5168
  849BF       F11244   5.098   4.010   3.497  0.1145 -0.1685 -0.3344
  849BF       F11245   5.056   4.031   3.280  0.0544 -0.3961  0.2332
  850BF       B11246   1.172   1.968   1.349 -0.3036 -0.3672 -0.4298
  850BF       F11247   1.130   2.074   1.265  0.5180 -0.2037 -0.3673
  850BF       F11248   1.186   1.846   1.282 -0.3127  0.2248 -0.2854
  850BF       F11249   1.292   2.011   1.411 -0.1216 -0.0173 -0.1603
  850BF       F11250   1.082   1.957   1.455 -0.4052  0.6522 -0.3453
  851BF       B11251   4.057   0.702   1.354  0.1077 -0.4852  0.6553
  851BF       F11252   4.043   0.724   1.216  0.6742 -0.3192  0.5365
  851BF       F11253   3.933   0.720   1.411  0.0181 -0.4706 -0.5048
  851BF       F11254   4.102   0.572   1.371 -0.0412 -0.5032  0.1158
  851BF       F11255   4.151   0.790   1.398  0.2045 -0.0447  0.7729
  852BF       B11256   0.423   3.593   4.653 -0.8551  0.1742  0.5374
  852BF       F11257   0.399   3.528   4.768 -0.6355 -0.0731 -0.0014
  852BF       F11258   0.392   3.520   4.545  0.6815 -0.1872 -0.4192
  852BF       F11259   0.348   3.709   4.664  0.0855 -0.5539 -0.6165
  852BF       F11260   0.560   3.622   4.649 -0.2418 -0.0924  0.4918
  853BF       B11261   2.071   2.293   4.010 -0.8410 -0.0687  0.1743
  853BF       F11262   1.970   2.194   3.996 -0.6064  0.0729 -0.6667
  853BF       F11263   2.198   2.232   3.978  0.3918  0.1638  0.1554
  853BF       F11264   2.046   2.402   3.919  0.0108  0.4956 -0.2349
  853BF       F11265   2.088   2.345   4.140  0.7168 -0.1275  0.8352
  854BF       B11266   4.240   0.265   3.148  0.2236  0.2875  0.0812
  854BF       F11267   4.358   0.287   3.072  0.5329  0.0365 -0.2398
  854BF       F11268   4.176   0.155   3.097 -0.1766  0.5161 -0.1386
  854BF       F11269   4.266   0.237   3.280 -0.3461 -0.0306 -0.5441
  854BF       F11270   4.166   0.384   3.153 -0.4643 -0.2519 -0.5373
  855BF       B11271   0.895   4.623   0.718  0.1472 -0.3881  0.2104
  855BF       F11272   1.027   4.615   0.681 -0.1005 -0.1005  0.3343
  855BF       F11273   0.817   4.643   0.612  0.7351 -0.7999  0.6687
  855BF       F11274   0.854   4.500   0.777  0.3889 -0.2152  0.2273
  855BF       F11275   0.883   4.729   0.806 -0.3503 -0.1419  0.1448
  856BF       B11276   0.135   1.116   3.675  0.3923  0.0595 -0.1606
  856BF       F11277   0.239   1.054   3.741  0.5251 -0.4190 -0.1372
  856BF       F11278   0.170   1.236   3.633  0.1082  0.3714  0.1639
  856BF       F11279   0.091   1.038   3.570  0.0061 -0.3798  0.1890
  856BF       F11280   0.028   1.128   3.771  0.3148  0.5474 -0.3546
  857BF       B11281   1.202   0.744   1.332 -0.4340  0.0511  0.4524
  857BF       F11282   1.066   0.731   1.318  0.2619  0.1591  0.1574
  857BF       F11283   1.260   0.616   1.312  0.1417  0.0207  0.2480
  857BF       F11284   1.241   0.832   1.230 -0.3672  0.6050  0.6292
  857BF       F11285   1.225   0.791   1.459  1.1733 -0.3058 -0.1772
  858BF       B11286   4.501   0.924   4.341  0.0629  0.5595  0.4036
  858BF       F11287   4.542   0.922   4.474  0.6777  0.5661  0.2484
  858BF       F11288   4.517   1.050   4.289 -0.1966 -0.0925 -0.2097
  858BF       F11289   4.573   0.830   4.268  1.1418 -0.4903 -0.0172
  858BF       F11290   4.369   0.885   4.334  0.3224 -0.6143 -0.3915
  859BF       B11291   0.422   3.436   3.451  0.2107  0.0857 -0.1343
  859BF       F11292   0.544   3.425   3.391 -0.1502 -0.1422  0.3203
  859BF       F11293   0.359   3.313   3.450  0.4864  0.0320 -0.1276
  859BF       F11294   0.446   3.466   3.583 -0.0699 -0.0866 -0.2129
  859BF       F11295   0.343   3.534   3.398  0.3719  0.3207  0.6473
  860BF       B11296   3.196   1.320   3.116 -0.1890  0.0049  0.5862
  860BF       F11297   3.268   1.384   3.206 -0.5424 -0.4673 -0.2097
  860BF       F11298   3.267   1.297   2.997  0.3697 -0.6663 -0.3533
  860BF       F11299   3.151   1.201   3.169 -0.4033 -0.0947  0.2041
  860BF       F11300   3.087   1.388   3.087 -0.1300  0.6134  0.2420
  861BF       B11301   0.836   3.235   2.968  0.0325 -0.8916 -0.3406
  861BF       F11302   0.904   3.126   2.918 -0.1683 -0.5288  0.3234
  861BF       F11303   0.712   3.246   2.909  0.5072 -0.4039 -0.1387
  861BF       F11304   0.813   3.221   3.105 -0.0849  0.0662  0.1698
  861BF       F11305   0.912   3.351   2.955  0.0883  0.1148  0.1102
  862BF       B11306   0.250   3.049   0.367  0.0858  0.1229 -0.8413
  862BF       F11307   0.357   3.030   0.452 -0.0541  0.2824 -0.2638
  862BF       F11308   0.152   3.109   0.441 -0.7049  0.0925  0.0248
  862BF       F11309   0.283   3.126   0.257 -0.1722  0.5055 -0.2907
  862BF       F11310   0.217   2.920   0.323 -0.1432  0.9635 -0.1914
  863BF       B11311   1.661   0.205   1.983  0.2195 -0.3635 -0.3685
  863BF       F11312   1.714   0.140   2.094 -0.0876 -0.0019  0.4621
  863BF       F11313   1.742   0.317   1.949  0.4639  0.9746 -0.4717
  863BF       F11314   1.648   0.119   1.876 -0.1290 -0.1496  0.3147
  863BF       F11315   1.531   0.246   2.015 -0.9764 -0.7705  0.2974
  864BF       B11316   2.951   1.413   1.630  0.4957 -0.2023  0.1113
  864BF       F11317   2.982   1.351   1.511  0.0858 -0.4294 -0.1348
  864BF       F11318   2.877   1.317   1.702  0.3155 -0.0327  0.0465
  864BF       F11319   3.059   1.464   1.703  0.0016 -0.1704 -0.4038
  864BF       F11320   2.871   1.530   1.610  0.2746 -0.1237 -0.2433
  865BF       B11321   1.472   2.760   4.110 -0.4561  0.3655 -1.3213
  865BF       F11322   1.538   2.708   4.003  0.5400  0.1153 -0.4025
  865BF       F11323   1.386   2.865   4.076 -0.1460 -0.2741 -0.1363
  865BF       F11324   1.410   2.662   4.180 -0.2356 -0.1776 -0.1180
  865BF       F11325   1.566   2.822   4.194  0.1421 -0.2173  0.5158
  866BF       B11326   0.902   4.302   4.618 -0.2914  0.3769 -0.0726
  866BF       F11327   0.829   4.284   4.731 -0.0527 -0.2046  0.3349
  866BF       F11328   0.861   4.399   4.536 -0.1723 -0.1870 -0.1528
  866BF       F11329   1.029   4.338   4.653  0.5600 -0.0134 -0.0746
  866BF       F11330   0.913   4.188   4.548 -0.3246  0.2686 -0.2992
  867BF       B11331   2.628   0.991   3.902 -0.2789  0.3964  0.5870
  867BF       F11332   2.560   1.049   4.008  0.2092 -0.2759  0.0709
  867BF       F11333   2.753   1.045   3.888 -0.1619 -0.4374 -0.1564
  867BF       F11334   2.640   0.850   3.933  0.3034 -0.0141  0.0727
  867BF       F11335   2.554   1.003   3.786 -0.0430 -0.6535  0.4549
  868BF       B11336   1.995   3.523   1.078  0.2227 -0.1348 -0.1786
  868BF       F11337   1.879   3.449   1.061  0.0460  0.0577  0.6432
  868BF       F11338   2.084   3.488   0.975 -0.1191 -0.5144  0.3681
  868BF       F11339   1.964   3.663   1.069 -0.2927 -0.0262 -0.2848
  868BF       F11340   2.040   3.493   1.204 -0.5859  0.0451  0.0823
  869BF       B11341   1.111   3.766   3.073  0.3652 -0.1287 -0.0361
  869BF       F11342   1.006   3.837   3.023  0.5130 -0.0809  0.0556
  869BF       F11343   1.095   3.747   3.210  0.3320 -0.1839  0.2307
  869BF       F11344   1.120   3.644   3.013 -0.4257  0.3607 -0.1372
  869BF       F11345   1.228   3.831   3.053 -0.6195  0.2526  0.2921
  870BF       B11346   4.562   2.116   2.800 -0.4837 -0.7545  0.0893
  870BF       F11347   4.463   2.216   2.823  0.5435  0.5718 -0.0266
  870BF       F11348   4.686   2.160   2.847 -0.1860  0.1182 -0.1492
  870BF       F11349   4.521   2.005   2.872  0.0739  0.5391  0.3949
  870BF       F11350   4.569   2.081   2.663  0.2782 -0.0095 -0.0476
  871BF       B11351   2.767   1.924   2.287 -0.1045 -0.4183  0.4782
  871BF       F11352   2.857   1.931   2.391  0.6496 -0.0214 -0.2148
  871BF       F11353   2.835   1.858   2.179 -0.5213  0.3310 -0.0470
  871BF       F11354   2.649   1.862   2.312  0.0121  0.0725  0.3555
  871BF       F11355   2.745   2.058   2.244  0.0983  0.3654 -0.3583
  872BF       B11356   3.957   2.383   2.303 -0.7990  0.0139  0.0313
  872BF       F11357   4.073   2.467   2.327  0.2293 -0.2125 -0.2252
  872BF       F11358   3.902   2.406   2.177  0.7552 -0.3596 -0.5551
  872BF       F11359   3.998   2.246   2.304  0.1137  0.2075  0.2678
  872BF       F11360   3.861   2.398   2.395  0.2132  0.2021 -0.0795
  873BF       B11361   5.074   1.775   4.557  0.1848 -0.0147 -0.1777
  873BF       F11362   4.997   1.748   4.446 -0.1157 -0.2712  0.2828
  873BF       F11363   5.089   1.910   4.559  0.9063 -0.6359 -0.5791
  873BF       F11364   5.016   1.723   4.671 -0.2922  0.2540  0.1854
  873BF       F11365   5.191   1.715   4.551 -0.2851 -0.1469  0.6230
  874BF       B11366   5.126   4.580   3.094 -0.0133 -0.4621 -0.7829
  874BF       F11367   5.242   4.645   3.124  0.7315 -0.6139 -0.1490
  874BF       F11368   5.109   4.596   2.961  0.0193  0.5646  0.6095
  874BF       F11369   5.130   4.445   3.134  0.0173 -0.3980  0.1771
  874BF       F11370   5.031   4.650   3.166  0.2120 -0.3980  0.0575
  875BF       B11371   2.342   2.263   3.282  0.3072  0.1698 -0.1938
  875BF       F11372   2.434   2.253   3.176 -0.1602 -0.0323 -0.2602
  875BF       F11373   2.384   2.185   3.391  0.3887  0.2712  0.5022
  875BF       F11374   2.322   2.391   3.321 -0.1584  0.0036  0.1836
  875BF       F11375   2.213   2.214   3.234 -0.6585  0.3460 -0.7479
  876BF       B11376   4.446   3.510   1.315 -0.6554 -0.0455  0.1693
  876BF       F11377   4.538   3.566   1.227  0.5845 -0.0356 -0.3679
  876BF       F11378   4.485   3.383   1.352 -0.5343 -0.8456 -0.1308
  876BF       F11379   4.454   3.579   1.429  0.6370 -0.6719  0.2260
  876BF       F11380   4.316   3.507   1.262 -0.0095  0.2256 -0.6303
  877BF       B11381   3.045   2.988   4.678 -0.5289 -0.9704 -0.0673
  877BF       F11382   3.180   3.003   4.652 -0.5416  0.1720  0.4956
  877BF       F11383   2.994   2.921   4.567  0.1008 -0.0790 -0.0661
  877BF       F11384   3.030   2.910   4.792  0.2356 -0.0806  0.6434
  877BF       F11385   2.990   3.114   4.687  0.0282  0.8242  0.3976
  878BF       B11386   3.488   3.661   1.158  0.0035  1.3164 -0.2631
  878BF       F11387   3.555   3.714   1.049 -0.5329 -0.0548 -0.5517
  878BF       F11388   3.483   3.763   1.252  0.2130 -0.8527 -0.1880
  878BF       F11389   3.352   3.619   1.136  0.2926 -0.6772 -0.2895
  878BF       F11390   3.565   3.569   1.223  0.3865 -0.1223  0.1380
  879BF       B11391   3.507   0.177   3.515 -0.2438 -0.1916 -0.4710
  879BF       F11392   3.429   0.064   3.485 -0.3463 -0.4532 -0.1297
  879BF       F11393   3.430   0.248   3.608  0.1241 -0.4357  0.0611
  879BF       F11394   3.624   0.136   3.578 -0.2167 -0.4813 -0.1684
  879BF       F11395   3.532   0.259   3.404 -0.4105  0.0334 -0.0060
  880BF       B11396   4.672   0.876   4.882  0.0925  0.3134 -0.5392
  880BF       F11397   4.679   0.860   5.018  0.0710  0.2935 -0.4828
  880BF       F11398   4.646   1.013   4.848 -0.2513 -0.3905 -0.7633
  880BF       F11399   4.793   0.839   4.823 -0.4868  0.2026 -0.1711
  880BF       F11400   4.574   0.792   4.832 -0.0132 -0.2066  0.6102
  881BF       B11401   0.163   4.231   4.535  0.2511 -0.2556  0.8354
  881BF       F11402   0.162   4.212   4.395 -0.4352 -0.3883  0.1383
  881BF       F11403   0.138   4.111   4.599  0.0770  0.2400 -0.6921
  881BF       F11404   0.294   4.276   4.566  0.4181  0.4277  0.2764
  881BF       F11405   0.067   4.325   4.571  0.5277  0.0635  0.0564
  882BF       B11406   3.278   4.626   0.639 -0.1344 -0.3119  0.8167
  882BF       F11407   3.273   4.679   0.766 -0.0680 -0.0507 -0.0823
  882BF       F11408   3.200   4.693   0.551 -0.0933 -0.3143  0.3926
  882BF       F11409   3.407   4.619   0.585 -0.1246 -0.3031  0.0433
  882BF       F11410   3.237   4.495   0.649 -0.0339  0.4413  0.1354
  883BF       B11411   4.499   5.076   2.164 -0.6848 -0.6269 -0.2975
  883BF       F11412   4.423   5.107   2.055 -0.0196  0.4238  0.3804
  883BF       F11413   4.521   5.199   2.230 -0.1321  0.3264 -0.4301
  883BF       F11414   4.437   4.983   2.248 -0.0543  0.0870  0.1397
  883BF       F11415   4.620   5.036   2.117 -0.3128  0.1561  0.9132
  884BF       B11416   1.599   2.137   2.661  0.5596 -0.4920  0.6697
  884BF       F11417   1.475   2.124   2.720 -0.2576 -0.5798  0.4907
  884BF       F11418   1.693   2.191   2.746  0.2940 -0.1903  0.4147
  884BF       F11419   1.633   2.010   2.617 -0.2445  0.6620 -0.6900
  884BF       F11420   1.577   2.223   2.555 -0.2023 -0.1679 -0.1353
  885BF       B11421   1.964   3.104   4.513  1.0920  0.0716  0.4006
  885BF       F11422   2.033   3.209   4.457  0.2107 -0.0591 -0.5867
  885BF       F11423   1.969   3.109   4.649  0.0513 -0.1686 -0.1396
  885BF       F11424   1.834   3.105   4.474 -0.3026  0.1473  0.1178
  885BF       F11425   2.013   2.991   4.471 -0.3324  0.4833 -0.1771
  886BF       B11426   2.845   0.732   1.645 -0.4488  0.0389  0.6518
  886BF       F11427   2.960   0.673   1.699 -0.0582 -0.9334 -0.0360
  886BF       F11428   2.764   0.627   1.598 -0.4740  0.0375 -0.5267
  886BF       F11429   2.780   0.808   1.741 -0.2811 -0.8172  0.3867
  886BF       F11430   2.897   0.811   1.544  0.2302 -0.6126  0.5851
  887BF       B11431   2.446   2.325   0.822  0.2061 -0.1896  0.2916
  887BF       F11432   2.312   2.357   0.844 -0.4089 -0.1484  0.0785
  887BF       F11433   2.521   2.441   0.820  0.2028 -0.2415  0.2492
  887BF       F11434   2.483   2.237   0.920  0.0862 -0.2492  0.3650
  887BF       F11435   2.460   2.260   0.699  0.0719 -0.1117  0.1526
  888BF       B11436   0.507   4.738   5.042  0.0394  0.2283 -0.9511
  888BF       F11437   0.394   4.693   5.104  0.0546 -0.0419  0.3680
  888BF       F11438   0.590   4.628   5.022 -0.4271 -0.6330  0.0746
  888BF       F11439   0.488   4.796   4.914 -0.3367 -0.3734 -0.3310
  888BF       F11440   0.565   4.835   5.123  0.3100  0.7746  0.1511
  889BF       B11441   3.063   3.206   1.482  0.1022 -1.2597  0.9196
  889BF       F11442   3.080   3.178   1.612  0.3763 -0.2753 -0.3823
  889BF       F11443   3.028   3.095   1.411 -0.3658  0.3727 -0.2382
  889BF       F11444   2.970   3.311   1.474  0.4415  0.4711  0.0172
  889BF       F11445   3.191   3.249   1.432  0.0964  0.1091 -1.0017
  890BF       B11446   0.011   2.084   3.165  0.2002 -0.1875 -0.5126
  890BF       F11447  -0.005   1.962   3.231  0.0325 -0.3147 -0.1430
  890BF       F11448  -0.106   2.155   3.172 -0.0098 -0.7291  0.1394
  890BF       F11449   0.107   2.159   3.233  0.7062  0.1818 -0.1544
  890BF       F11450   0.056   2.069   3.035 -0.0683  0.3689 -0.2314
  891BF       B11451   0.446   4.898   2.188  0.4607 -0.2653  0.0782
  891BF       F11452   0.500   4.770   2.234  0.5694  0.3323  0.1908
  891BF       F11453   0.489   4.925   2.062 -0.2690  0.1490  0.1237
  891BF       F11454   0.308   4.891   2.190  0.2511  0.0062  0.0805
  891BF       F11455   0.494   5.001   2.274  0.0820 -0.0367 -0.3589
  892BF       B11456   1.033   1.297   0.349 -0.0375 -0.3915 -0.2970
  892BF       F11457   1.163   1.303   0.400 -0.4579 -0.1605  0.6578
  892BF       F11458   0.953   1.194   0.397  0.2969  0.6618  0.3610
  892BF       F11459   0.967   1.423   0.369  0.2776 -0.1689 -0.4031
  892BF       F11460   1.055   1.277   0.212 -0.0023  0.5909  0.0388
  893BF       B11461   2.915   1.085   1.039 -0.3124  0.3107  0.0530
  893BF       F11462   2.902   1.162   1.148  0.1785  0.3031 -0.1378
  893BF       F11463   3.049   1.063   1.002  0.3167  0.2005  0.0960
  893BF       F11464   2.858   0.965   1.065  0.2638 -0.4513  0.0676
  893BF       F11465   2.855   1.149   0.932 -0.1273 -0.3466  0.6398
  894BF       B11466   0.623   1.750   3.945  0.5142 -0.3597  0.5780
  894BF       F11467   0.588   1.844   3.846 -0.5853  0.1483 -0.3348
  894BF       F11468   0.599   1.620   3.891 -0.3882 -0.0957 -0.0029
  894BF       F11469   0.754   1.757   3.975  0.5021  0.0731  0.0429
  894BF       F11470   0.542   1.767   4.055 -0.3922 -0.2057  0.4672
  895BF       B11471   4.751   4.453   2.296 -0.0138 -0.8986  0.2486
  895BF       F11472   4.792   4.368   2.395  0.2264  0.0663 -0.4865
  895BF       F11473   4.865   4.536   2.278  0.3697 -0.2966  0.3637
  895BF       F11474   4.735   4.379   2.177  0.2291  0.0918 -0.1263
  895BF       F11475   4.638   4.518   2.337  0.2318 -0.2191  0.0114
  896BF       B11476   3.183   0.545   1.091 -0.2813  0.2349  0.3569
  896BF       F11477   3.180   0.675   1.128  0.7474  0.1597  0.0871
  896BF       F11478   3.056   0.504   1.064  0.4548 -0.0237  0.0164
  896BF       F11479   3.270   0.535   0.986 -0.8483  0.6469  0.1107
  896BF       F11480   3.231   0.473   1.199 -0.0485  0.1576 -0.0985
  897BF       B11481   1.623   1.510   1.177 -0.1271  0.8970  0.7660
  897BF       F11482   1.721   1.603   1.151 -0.5914  0.4961 -0.1218
  897BF       F11483   1.671   1.390   1.133  0.2212 -0.4028 -0.6161
  897BF       F11484   1.598   1.510   1.311 -0.3840 -0.1431 -0.1207
  897BF       F11485   1.506   1.540   1.116  0.0071  0.0064 -0.8442
  898BF       B11486   1.134   1.016   2.702  0.0924  0.3096  0.5001
  898BF       F11487   1.218   0.941   2.622  0.2818  0.1625  0.7038
  898BF       F11488   1.210   1.110   2.761 -0.2833 -0.3024  0.3614
  898BF       F11489   1.033   1.079   2.625 -0.3556 -0.2269  0.0149
  898BF       F11490   1.064   0.939   2.792  0.2643  0.0268 -0.1198
  899BF       B11491   0.900   0.189   2.488  0.0435 -0.2587 -0.1034
  899BF       F11492   0.770   0.197   2.544 -0.6041  0.0127  0.1499
  899BF       F11493   0.948   0.312   2.442 -0.2036 -0.0146  0.6411
  899BF       F11494   0.992   0.150   2.586 -0.5096  0.4699  0.5832
  899BF       F11495   0.899   0.097   2.384 -0.0039 -0.3217 -0.0162
  900BF       B11496   3.804   2.196   1.299  0.1296  0.0652  0.0354
  900BF       F11497   3.810   2.324   1.358 -0.3439  0.2550  0.3361
  900BF       F11498   3.779   2.104   1.400 -0.1461 -0.3487 -0.2351
  900BF       F11499   3.703   2.193   1.203 -0.1847 -0.0270 -0.3212
  900BF       F11500   3.917   2.158   1.225 -0.0659 -0.0760  0.1703
  901BF       B11501   1.832   2.730   1.514  0.2373 -0.1527  0.2015
  901BF       F11502   1.944   2.692   1.441  0.2120 -0.0087  0.1865
  901BF       F11503   1.876   2.770   1.638 -0.0299  0.1680 -0.0030
  901BF       F11504   1.760   2.827   1.444  0.8087  0.1167  0.6947
  901BF       F11505   1.749   2.618   1.535  0.2518 -0.4896  0.3549
  902BF       B11506   3.134   4.385   2.126 -0.1817  0.4466  0.3326
  902BF       F11507   3.179   4.299   2.230  0.2646 -0.0122  0.5426
  902BF       F11508   3.052   4.481   2.177 -0.5467 -0.0519  0.0406
  902BF       F11509   3.245   4.441   2.070  0.1944  0.2257  0.1234
  902BF       F11510   3.057   4.318   2.033 -0.0718 -0.0121  0.3333
  903BF       B11511   4.259   1.139   2.707  0.1833  0.6799 -0.9877
  903BF       F11512   4.312   1.257   2.658 -0.5809 -0.0649 -0.0041
  903BF       F11513   4.354   1.079   2.789 -0.1158  0.7084 -0.3771
  903BF       F11514   4.151   1.159   2.787  0.2600 -0.1898  0.2035
  903BF       F11515   4.217   1.043   2.615  0.5762 -0.2481 -0.3803
  904BF       B11516   3.865   1.690   4.766 -0.0756  0.2891 -0.5373
  904BF       F11517   3.827   1.805   4.702  0.0638 -0.2877  0.7651
  904BF       F11518   3.991   1.707   4.826 -0.5016  0.1489  0.6590
  904BF       F11519   3.771   1.666   4.864  0.1180  0.7392  0.1581
  904BF       F11520   3.880   1.590   4.668 -0.1859  0.0680  0.1104
  905BF       B11521   0.321   0.441   4.850  0.0576 -0.0547 -0.3018
  905BF       F11522   0.249   0.523   4.768 -0.6103 -0.1075 -0.3164
  905BF       F11523   0.449   0.421   4.794  0.5665  0.5586  0.2302
  905BF       F11524   0.329   0.501   4.976  0.3759  0.2767 -0.6096
  905BF       F11525   0.249   0.322   4.865  0.4799  0.2943 -0.0635
  906BF       B11526   1.552   4.627   0.453  0.4620 -0.1610  1.0292
  906BF       F11527   1.572   4.757   0.408 -0.1609  0.8599 -0.2209
  906BF       F11528   1.596   4.541   0.350 -0.2071  0.2744  0.3379
  906BF       F11529   1.625   4.598   0.565  0.2132  0.2227 -0.1260
  906BF       F11530   1.419   4.596   0.474  0.0002  0.4943  0.1549
  907BF       B11531   2.713   4.017   1.242 -0.4457 -0.2824  0.3456
  907BF       F11532   2.777   4.105   1.154  0.2099  0.3390  0.8118
  907BF       F11533   2.768   4.046   1.363  0.3710 -0.2467  0.3663
  907BF       F11534   2.575   4.031   1.240  0.0859 -0.3318  0.4612
  907BF       F11535   2.735   3.887   1.210 -0.6979  0.1829  0.6125
  908BF       B11536   5.067   3.528   4.096 -0.1585  0.1094  0.2461
  908BF       F11537   4.980   3.477   4.205 -0.3426  0.0983  0.3038
  908BF       F11538   5.007   3.642   4.034  0.7585 -0.3003 -0.2197
  908BF       F11539   5.192   3.557   4.155 -0.1355  0.0263 -0.1819
  908BF       F11540   5.087   3.418   4.013  0.0870 -0.4678  0.5417
  909BF       B11541   3.631   2.589   4.708  0.8529  0.1165 -0.7254
  909BF       F11542   3.664   2.489   4.620  1.2917 -0.3167  0.0871
  909BF       F11543   3.696   2.708   4.692  0.0255 -0.1391 -0.0967
  909BF       F11544   3.490   2.617   4.688  0.2980  0.2026 -0.6515
  909BF       F11545   3.651   2.539   4.839 -0.6925 -0.4863  0.0959
  910BF       B11546   4.673   4.315   4.158 -0.5002 -0.1841 -0.8952
  910BF       F11547   4.567   4.373   4.220 -0.3025 -0.3069 -0.5381
  910BF       F11548   4.716   4.398   4.050  0.1995  0.1791 -0.2091
  910BF       F11549   4.783   4.292   4.244  0.2965  0.6032  0.1061
  910BF       F11550   4.639   4.196   4.100  0.1899  0.1761  0.1308
  911BF       B11551   0.299   2.001   2.626 -0.5932  0.1680  0.1896
  911BF       F11552   0.358   1.914   2.531 -0.3277 -0.3848 -0.2403
  911BF       F11553   0.356   2.125   2.612 -0.5420 -0.0562 -0.5448
  911BF       F11554   0.157   1.992   2.628  0.5158 -0.4994  0.0638
  911BF       F11555   0.330   1.942   2.745 -0.3120 -0.2284  0.8111
  912BF       B11556   1.940   2.483   0.476  0.5472 -0.3080 -0.3014
  912BF       F11557   1.997   2.467   0.601  0.8532  0.4078  0.1198
  912BF       F11558   2.028   2.419   0.383 -0.6490  0.1639 -0.0071
  912BF       F11559   1.812   2.427   0.476 -0.1303  0.1824 -0.0517
  912BF       F11560   1.931   2.616   0.439  0.1795  0.0623 -0.1457
  913BF       B11561   1.500   3.339   0.691 -0.1923 -0.4451 -0.0902
  913BF       F11562   1.551   3.422   0.589  0.2136  0.1426  0.3089
  913BF       F11563   1.423   3.246   0.620  0.1414  0.6670 -0.1441
  913BF       F11564   1.599   3.278   0.763  0.2948 -0.6163  0.1161
  913BF       F11565   1.428   3.419   0.780  0.0735  0.0872  0.4300
  914BF       B11566   4.323   3.507   1.977 -0.0990 -0.1633 -0.5158
  914BF       F11567   4.198   3.452   1.993  0.3338 -0.1918  0.2683
  914BF       F11568   4.346   3.596   2.077 -0.4741 -0.3824  0.4070
  914BF       F11569   4.420   3.411   1.980  0.8983  0.0151  0.0883
  914BF       F11570   4.322   3.575   1.857 -0.3971  0.1211 -0.3939
  915BF       B11571   1.683   3.696   0.333  0.2547 -0.2978  0.3207
  915BF       F11572   1.767   3.590   0.368  0.2004  0.1347  0.1780
  915BF       F11573   1.721   3.767   0.220 -0.4621  0.1168  0.4470
  915BF       F11574   1.554   3.644   0.309  0.3682 -0.0836  0.1991
  915BF       F11575   1.671   3.784   0.445 -0.1591  0.0038 -0.0587
  916BF       B11576   1.361   0.875   4.351  0.1828 -0.1853 -0.2782
  916BF       F11577   1.465   0.807   4.295 -0.0107 -0.1940  0.0607
  916BF       F11578   1.408   1.007   4.358 -0.0677 -0.0854 -0.1033
  916BF       F11579   1.245   0.864   4.268  0.3056 -0.3024  0.1435
  916BF       F11580   1.351   0.824   4.482 -0.0505  0.2428  0.0303
  917BF       B11581   3.549   3.258   5.113 -0.9829  0.5032  0.3141
  917BF       F11582   3.625   3.351   5.175 -0.0284  0.1957  0.4567
  917BF       F11583   3.639   3.160   5.067  0.6036 -0.3623 -0.0378
  917BF       F11584   3.471   3.201   5.212 -0.2113 -0.0288  0.6110
  917BF       F11585   3.474   3.313   5.013  0.2883  0.0989  0.4497
  918BF       B11586   3.486   1.075   2.642  0.0848  0.2575  0.3568
  918BF       F11587   3.482   0.971   2.548  0.2952 -0.6398 -0.0112
  918BF       F11588   3.547   1.187   2.585 -0.4584 -0.0566  0.6009
  918BF       F11589   3.351   1.106   2.682 -1.1301  0.1083  0.0916
  918BF       F11590   3.559   1.029   2.751 -0.9278 -0.1637  0.6398
  919BF       B11591   1.512   1.347   3.969  0.1150  0.8155 -0.2684
  919BF       F11592   1.564   1.474   3.964  0.2645 -0.1225  0.4281
  919BF       F11593   1.535   1.290   4.093 -0.0979  0.5535  0.0378
  919BF       F11594   1.371   1.340   3.959 -0.1860 -0.2154 -0.1384
  919BF       F11595   1.570   1.267   3.871  0.1411 -0.2640  0.2005
  920BF       B11596   4.306   2.160   1.807  0.4333 -0.2944 -0.1414
  920BF       F11597   4.232   2.235   1.899  0.3867 -0.0557 -0.3391
  920BF       F11598   4.228   2.046   1.773 -0.4649  0.4755 -0.5690
  920BF       F11599   4.345   2.230   1.692 -0.1865  0.3180  0.2016
  920BF       F11600   4.420   2.115   1.868  0.1157 -0.6810 -0.5574
  921BF       B11601   4.208   4.206   3.693 -0.2718  0.1070  0.2762
  921BF       F11602   4.313   4.178   3.782 -0.8723  0.3640  0.2704
  921BF       F11603   4.139   4.323   3.728 -0.2566  0.1217  0.1009
  921BF       F11604   4.277   4.237   3.576 -0.0245  0.3457  0.0096
  921BF       F11605   4.129   4.099   3.660  0.0618 -0.1108 -0.3507
  922BF       B11606   3.137   3.115   3.398 -0.7305 -0.4925 -0.8452
  922BF       F11607   3.146   2.994   3.466  0.4342  0.0529  0.2682
  922BF       F11608   3.152   3.093   3.263  0.5248 -0.4999 -0.2199
  922BF       F11609   3.023   3.189   3.423  0.2775  0.0445 -0.3786
  922BF       F11610   3.247   3.191   3.452 -0.1742 -0.4124 -0.0620
  923BF       B11611   0.271   2.777   3.517 -0.5361  0.0705 -0.4416
  923BF       F11612   0.196   2.874   3.567 -0.1785 -0.9358  0.0107
  923BF       F11613   0.208   2.659   3.546  0.6178 -0.2883  0.7339
  923BF       F11614   0.283   2.786   3.377  0.2832 -0.5825 -0.0673
  923BF       F11615   0.396   2.774   3.575  0.2524 -0.2691 -0.0500
  924BF       B11616   3.420   0.524   0.686  0.2336  0.6913 -0.0685
  924BF       F11617   3.480   0.586   0.799  0.2361  0.0666  0.1104
  924BF       F11618   3.484   0.407   0.644  0.2148  0.2823  0.3996
  924BF       F11619   3.281   0.506   0.700 -0.3050 -0.1939 -0.0905
  924BF       F11620   3.434   0.608   0.579  0.0832 -0.2886 -0.0790
  925BF       B11621   0.497   0.009   0.832 -0.7864 -0.1947 -0.3583
  925BF       F11622   0.553  -0.116   0.862  0.2210  0.4835 -0.0708
  925BF       F11623   0.584   0.088   0.771 -0.2254 -0.1817  0.4708
  925BF       F11624   0.377   0.003   0.768 -0.1757 -0.4954  0.4306
  925BF       F11625   0.488   0.059   0.965  0.0434  0.5920  0.1341
  926BF       B11626   3.531   3.981   2.352 -0.2741  0.4391 -0.0241
  926BF       F11627   3.416   3.978   2.435  0.0065  0.1233 -0.1307
  926BF       F11628   3.536   3.861   2.278 -0.4873 -0.7225  0.1009
  926BF       F11629   3.530   4.082   2.265  0.0101 -0.0532 -0.2076
  926BF       F11630   3.644   3.975   2.427  0.1229 -0.8581  0.1900
  927BF       B11631   0.077   4.947   4.648 -0.5017  0.0990  0.1125
  927BF       F11632  -0.035   4.924   4.737 -0.1519 -0.3675 -0.0360
  927BF       F11633   0.030   4.984   4.517  0.1105 -0.2466 -0.2868
  927BF       F11634   0.153   5.058   4.695  0.2995  0.1236 -0.4968
  927BF       F11635   0.158   4.832   4.637 -0.1696 -0.1687  0.3235
  928BF       B11636   3.520   2.219   3.920  1.2551  0.0570  0.2160
  928BF       F11637   3.615   2.263   3.833 -0.0702  0.8740  0.1489
  928BF       F11638   3.573   2.187   4.042  0.0188 -0.9600  0.0274
  928BF       F11639   3.435   2.323   3.934  0.2835 -0.6561 -0.2051
  928BF       F11640   3.464   2.108   3.861  0.0100  0.0778  0.0350
  929BF       B11641   1.204   4.751   2.156 -0.4596  0.0985  0.3765
  929BF       F11642   1.158   4.675   2.049 -0.1308  0.2951  0.7077
  929BF       F11643   1.095   4.807   2.217 -0.3992  0.0217  0.0786
  929BF       F11644   1.270   4.670   2.249 -0.5468  0.0450  0.3450
  929BF       F11645   1.285   4.851   2.116 -0.5623  0.0447  0.4349
  930BF       B11646   2.135   4.552   0.288 -0.8148 -0.6417 -0.0320
  930BF       F11647   2.247   4.610   0.360  0.0157  0.3371  0.8778
  930BF       F11648   2.106   4.635   0.181 -0.3098 -0.3724 -0.3795
  930BF       F11649   2.166   4.424   0.237 -0.2038 -0.3346  0.2822
  930BF       F11650   2.025   4.537   0.368 -0.1030 -0.0486  0.1293
  931BF       B11651   5.036   0.821   3.118  0.5458 -0.1835 -0.0048
  931BF       F11652   4.908   0.789   3.166 -0.5882 -0.2730 -0.2706
  931BF       F11653   5.105   0.705   3.091  0.0882  0.3948 -0.3818
  931BF       F11654   5.021   0.893   3.002 -0.3462 -0.8580 -0.0324
  931BF       F11655   5.109   0.896   3.208 -0.2886  0.2327  0.1165
  932BF       B11656   1.386   0.271   1.477  0.5703  0.3363  0.1155
  932BF       F11657   1.463   0.357   1.556 -0.5049  0.0343  0.6796
  932BF       F11658   1.406   0.140   1.513 -0.2703  0.4491  0.1322
  932BF       F11659   1.251   0.287   1.485  0.2913  0.1359 -0.2123
  932BF       F11660   1.418   0.284   1.343  0.0395 -0.2000 -0.2339
  933BF       B11661   2.716   3.104   2.448  0.2102  0.1920 -0.3980
  933BF       F11662   2.855   3.092   2.469 -0.4105 -0.2241 -0.0765
  933BF       F11663   2.664   3.181   2.552 -0.2087 -0.2213  0.0288
  933BF       F11664   2.693   3.169   2.329 -0.3574  0.2950  0.3935
  933BF       F11665   2.660   2.979   2.461  0.5529  0.1733 -0.1834
  934BF       B11666   1.870   1.482   0.026  0.3569 -1.0509 -0.2523
  934BF       F11667   1.842   1.375  -0.063  0.1521  0.4172 -0.0639
  934BF       F11668   1.791   1.473   0.140  0.1272  0.0405  0.6311
  934BF       F11669   2.003   1.473   0.071  0.2941 -0.1234  0.6172
  934BF       F11670   1.856   1.606  -0.030  0.3235  0.7064 -0.0129
  935BF       B11671   0.078   5.093   3.792 -0.3221 -0.5002 -0.0352
  935BF       F11672   0.179   5.189   3.795  0.0942 -0.6672  0.8031
  935BF       F11673  -0.006   5.137   3.694  0.1686 -0.2328  0.0437
  935BF       F11674   0.121   4.967   3.761 -0.2049 -0.3203  0.3404
  935BF       F11675   0.008   5.095   3.911 -0.2335 -0.2524 -0.1362
  936BF       B11676   3.878   5.010   4.237  0.4725 -0.3008 -0.1292
  936BF       F11677   4.021   5.020   4.220  0.2040  0.4068  0.1298
  936BF       F11678   3.825   5.121   4.304  0.4143 -0.3930  0.1068
  936BF       F11679   3.803   4.983   4.126  0.2484 -0.2644 -0.1239
  936BF       F11680   3.847   4.901   4.318 -0.3319  0.0445 -0.2126
  937BF       B11681   2.381   0.237   5.014 -1.0170 -0.1383  0.2046
  937BF       F11682   2.283   0.316   5.065 -0.1146  0.4255 -0.2667
  937BF       F11683   2.319   0.146   4.933  0.1991  0.4360 -0.4142
  937BF       F11684   2.458   0.317   4.931  0.2474 -0.0473  0.0004
  937BF       F11685   2.447   0.175   5.119 -0.3735  0.3298  0.0488
  938BF       B11686   2.690   1.868   1.274  0.4139 -0.3576 -0.9192
  938BF       F11687   2.825   1.828   1.306 -0.2745 -0.3010  0.1086
  938BF       F11688   2.642   1.804   1.157  0.0109  0.1520 -0.3022
  938BF       F11689   2.610   1.831   1.391  0.3023  0.1774  0.4327
  938BF       F11690   2.694   2.005   1.258 -0.4215 -0.1845  0.4851
  939BF       B11691   3.130   3.447   1.937 -0.5229  0.1284  0.4112
  939BF       F11692   3.001   3.496   1.968 -0.3635  0.0901 -0.1607
  939BF       F11693   3.143   3.362   1.833  0.3424  0.1568  0.0102
  939BF       F11694   3.208   3.558   1.907  0.1295  0.3308  0.4915
  939BF       F11695   3.191   3.377   2.036  0.4192  0.0555 -0.0915
  940BF       B11696   0.136   0.542   4.150 -0.6600 -0.6318  0.1563
  940BF       F11697   0.099   0.431   4.079 -0.2762 -0.4145 -0.4299
  940BF       F11698   0.028   0.582   4.232 -0.3322  0.3094 -0.0040
  940BF       F11699   0.241   0.519   4.236 -0.0738 -0.1564  0.1448
  940BF       F11700   0.169   0.646   4.061  0.0046 -0.2550  0.1312
  941BF       B11701   3.309   4.259   2.837 -0.0306  0.0109 -0.5567
  941BF       F11702   3.264   4.390   2.823 -0.3653  0.2697  0.1390
  941BF       F11703   3.235   4.190   2.935  0.6355  0.1588 -0.2928
  941BF       F11704   3.289   4.206   2.714 -0.2442  0.1868  0.3353
  941BF       F11705   3.439   4.262   2.867  0.0169  0.1090 -0.5066
  942BF       B11706   1.008   4.632   1.584  0.5063  0.3739 -0.2305
  942BF       F11707   1.117   4.575   1.521 -0.1643 -0.4880 -0.5948
  942BF       F11708   0.997   4.576   1.719  0.4729  0.2413 -0.6371
  942BF       F11709   1.009   4.771   1.597  0.5639 -0.0384 -0.2672
  942BF       F11710   0.894   4.588   1.513 -0.6771 -0.7784  0.1863
  943BF       B11711   2.781   2.866   0.850  0.3818 -0.8608  0.1373
  943BF       F11712   2.684   2.766   0.863 -0.4222  0.0894  0.0052
  943BF       F11713   2.825   2.874   0.717  0.1295 -0.2015  0.2549
  943BF       F11714   2.715   2.983   0.893 -0.4287 -0.6908  0.4176
  943BF       F11715   2.888   2.843   0.933  0.1422 -0.0060 -0.2475
  944BF       B11716   1.331   1.198   0.837  0.4977  0.7490  0.0196
  944BF       F11717   1.438   1.175   0.922  0.1180 -0.5651 -0.2706
  944BF       F11718   1.232   1.113   0.878  0.0225 -0.6158  0.3118
  944BF       F11719   1.291   1.327   0.846 -0.7971  0.2809  0.1722
  944BF       F11720   1.356   1.167   0.708 -0.1368  0.3538  0.5455
  945BF       B11721   4.793   0.542   3.944  0.5451  0.1703 -0.0279
  945BF       F11722   4.713   0.620   4.024  0.1512  0.1209 -0.5791
  945BF       F11723   4.923   0.583   3.952  0.2476  0.0807 -0.1668
  945BF       F11724   4.781   0.409   3.990 -0.0234 -0.1569  0.3151
  945BF       F11725   4.754   0.550   3.816  0.1505  0.6636  0.3200
  946BF       B11726   0.700   1.337   4.681 -0.7761 -0.2078 -0.4524
  946BF       F11727   0.752   1.350   4.554 -0.2749 -0.3521 -0.0901
  946BF       F11728   0.684   1.459   4.733  0.2679 -0.0542 -0.5067
  946BF       F11729   0.582   1.260   4.671  0.3740  0.3380  0.3198
  946BF       F11730   0.791   1.268   4.760  0.4934 -0.0908 -0.0144
  947BF       B11731   1.019   2.640   1.713  0.2363 -0.3281 -0.3981
  947BF       F11732   1.014   2.758   1.635 -0.4955 -0.2434  0.3777
  947BF       F11733   0.923   2.556   1.662  0.5000  0.5284 -0.1187
  947BF       F11734   1.144   2.589   1.709  0.4246 -0.0075 -0.0567
  947BF       F11735   0.990   2.667   1.845 -0.1016  0.2717  0.4583
  948BF       B11736   3.137   0.873   3.647  0.4624 -0.1269  0.0201
  948BF       F11737   3.000   0.887   3.661  0.1149  0.0073 -0.0888
  948BF       F11738   3.162   0.733   3.659 -0.3235  0.5535 -1.0555
  948BF       F11739   3.185   0.924   3.529  0.4263  0.0450 -0.2430
  948BF       F11740   3.192   0.936   3.760 -0.3642 -0.1166 -0.6427
  949BF       B11741   4.424   2.914   1.969  0.3598  1.1587 -0.1395
  949BF       F11742   4.521   3.006   1.946 -0.3819  0.0158 -0.2669
  949BF       F11743   4.300   2.971   2.007  0.2047  0.0308  0.1090
  949BF       F11744   4.398   2.837   1.854 -0.0873  0.2901 -0.4777
  949BF       F11745   4.460   2.825   2.070  0.0645 -0.6770  0.6828
  950BF       B11746   3.509   2.653   1.749 -0.8382  0.2954 -0.3634
  950BF       F11747   3.612   2.630   1.839  0.4541 -0.2449 -0.5870
  950BF       F11748   3.463   2.782   1.752  0.7637  0.2533 -0.0703
  950BF       F11749   3.565   2.632   1.621 -0.7519 -0.1338  0.5413
  950BF       F11750   3.402   2.567   1.771 -0.0732 -0.0335 -0.0448
  951BF       B11751   0.002   4.532   0.327 -0.7351 -0.5255 -0.2297
  951BF       F11752  -0.007   4.670   0.296 -0.2255 -0.0217 -0.1880
  951BF       F11753  -0.114   4.492   0.392 -0.6954  0.2952  0.3481
  951BF       F11754   0.000   4.458   0.209 -0.3418 -0.1687  0.6638
  951BF       F11755   0.115   4.506   0.403 -0.2850 -0.4344 -0.6710
  952BF       B11756   1.972   2.938   0.986 -0.0204  0.4939  0.0218
  952BF       F11757   2.060   2.923   1.089  0.3761 -0.5764 -0.1341
  952BF       F11758   2.017   2.845   0.889  0.0146 -0.3351 -0.4320
  952BF       F11759   1.844   2.913   1.041 -0.1611 -0.5128  0.1599
  952BF       F11760   1.977   3.068   0.940 -0.3091  0.4511  0.5361
  953BF       B11761   4.501   4.591   0.522 -0.1670 -0.4694 -1.1360
  953BF       F11762   4.588   4.623   0.630  0.4264  0.9089  0.2438
  953BF       F11763   4.420   4.481   0.556  0.2736  0.0381  0.5610
  953BF       F11764   4.415   4.702   0.504 -0.0786  0.5573  0.3432
  953BF       F11765   4.576   4.576   0.409  0.3795 -0.2012  0.0840
  954BF       B11766   2.465   3.888   2.894  0.2399  0.1608  1.6125
  954BF       F11767   2.440   3.814   2.770  0.4958 -0.1098 -0.4355
  954BF       F11768   2.427   3.809   2.993  0.3287  0.2504 -0.1273
  954BF       F11769   2.604   3.917   2.901 -0.0896 -0.1876  0.2966
  954BF       F11770   2.394   4.010   2.900  0.8946 -0.1653  0.1541
  955BF       B11771   1.752   1.645   2.370  0.1391 -0.8622  0.4884
  955BF       F11772   1.852   1.700   2.299  0.1581 -0.3040  0.3354
  955BF       F11773   1.687   1.733   2.464 -0.1650 -0.6431 -0.0533
  955BF       F11774   1.659   1.612   2.267  0.1606 -0.5179 -0.4366
  955BF       F11775   1.794   1.527   2.428 -0.0961 -0.0636 -0.4548
  956BF       B11776   4.843   4.048   0.614  0.0955  0.4321  0.1607
  956BF       F11777   4.962   4.020   0.545  0.1369  0.0769  0.3181
  956BF       F11778   4.809   4.178   0.597  0.1480 -0.0233  0.1882
  956BF       F11779   4.741   3.972   0.563 -0.1286  0.4339  0.5267
  956BF       F11780   4.859   4.019   0.740  0.0774  0.5542  0.4733
  957BF       B11781   3.850   2.229   2.978  0.0963  0.0500 -0.1590
  957BF       F11782   3.825   2.104   2.921 -0.5157 -0.3363 -0.1610
  957BF       F11783   3.977   2.220   3.044  0.3289  0.8275 -0.9658
  957BF       F11784   3.851   2.335   2.890 -0.2018  0.0006 -0.0826
  957BF       F11785   3.745   2.257   3.069 -0.5111  0.4324  0.2118
  958BF       B11786   3.009   0.111   1.844  0.0743  0.6264  0.0490
  958BF       F11787   3.129   0.130   1.788  0.0686  0.2715  0.2042
  958BF       F11788   2.918   0.035   1.769  0.2676  0.2856 -0.2012
  958BF       F11789   3.010   0.044   1.969  0.3603  0.0457  0.0857
  958BF       F11790   2.958   0.236   1.864  0.0706  0.6611 -0.2215
  959BF       B11791   4.948   0.338   2.329 -0.0966  0.1794  0.8355
  959BF       F11792   4.907   0.291   2.202 -0.4115  0.6065 -0.2755
  959BF       F11793   4.926   0.233   2.416  0.1155  0.2008 -0.0279
  959BF       F11794   5.081   0.374   2.332 -0.4665 -0.6364 -0.1079
  959BF       F11795   4.872   0.447   2.361 -0.1090  0.0309  0.1027
  960BF       B11796   4.019   2.082   0.232 -0.1613 -0.6343 -0.1274
  960BF       F11797   4.139   2.012   0.258  0.0093  0.0939  0.3838
  960BF       F11798   3.906   2.009   0.275 -0.2023  0.6288 -0.6302
  960BF       F11799   4.025   2.210   0.293  0.6057 -0.6205 -0.4018
  960BF       F11800   3.995   2.099   0.093 -0.2998  0.5463 -0.3778
  961BF       B11801   4.936   1.394   2.886  0.0681 -0.0116  0.3147
  961BF       F11802   4.986   1.510   2.945  0.1078  0.2065 -0.4495
  961BF       F11803   4.869   1.424   2.757  0.4528 -0.0110  0.0199
  961BF       F11804   5.038   1.307   2.860  0.6637 -0.4252  0.2550
  961BF       F11805   4.842   1.338   2.974  0.0919 -0.2775  0.3851
  962BF       B11806   4.155   4.045   4.673  0.2471  0.1614  0.7307
  962BF       F11807   4.278   3.973   4.666  0.8860 -0.2885  0.1531
  962BF       F11808   4.044   3.968   4.625 -0.2231 -0.3582  0.3585
  962BF       F11809   4.138   4.095   4.805 -0.0234  0.3632 -0.0735
  962BF       F11810   4.156   4.165   4.592 -0.3809 -0.5476 -0.1304
  963BF       B11811   2.699   4.524   0.021 -0.1756 -0.0195  0.6173
  963BF       F11812   2.747   4.605  -0.081 -0.1730 -0.5193 -0.1729
  963BF       F11813   2.800   4.440   0.062 -0.6128  0.0198  0.3429
  963BF       F11814   2.654   4.600   0.127  0.5193 -0.1530  0.0864
  963BF       F11815   2.596   4.445  -0.032 -0.3386 -0.3310  0.6597
  964BF       B11816   4.461   4.667   2.850 -0.0915 -0.0790 -0.3633
  964BF       F11817   4.505   4.776   2.920  0.0090  0.3201  0.0527
  964BF       F11818   4.552   4.643   2.747  0.1484  0.0542  0.2687
  964BF       F11819   4.470   4.558   2.931 -0.1776 -0.2695 -0.3772
  964BF       F11820   4.334   4.696   2.790  0.5287  0.1852  0.3371
  965BF       B11821   3.222   2.492   1.074 -0.8409 -0.4243 -0.5907
  965BF       F11822   3.335   2.539   1.004 -0.4920 -0.1024  0.6356
  965BF       F11823   3.213   2.353   1.057 -0.0137  0.1919  0.6127
  965BF       F11824   3.238   2.525   1.211  0.3913  0.2268  0.0303
  965BF       F11825   3.112   2.558   1.021 -0.0781 -0.3997  0.1763
  966BF       B11826   0.532   0.094   0.263 -0.2824 -0.7490 -0.1806
  966BF       F11827   0.456  -0.007   0.316 -0.2861 -0.1087 -0.1900
  966BF       F11828   0.501   0.215   0.326 -0.5301  0.1616  0.1373
  966BF       F11829   0.670   0.069   0.277  0.0468  0.4055  0.0417
  966BF       F11830   0.512   0.115   0.123  0.1434 -0.0430 -0.2175
  967BF       B11831   1.198   0.026   0.781  0.0837 -0.5685  0.2307
  967BF       F11832   1.075   0.058   0.718 -0.4340 -0.2009 -0.2205
  967BF       F11833   1.172  -0.042   0.894 -1.1584 -0.2531  0.1081
  967BF       F11834   1.270  -0.053   0.696 -0.5763  0.4243  0.1420
  967BF       F11835   1.273   0.148   0.803  0.5325  0.1524  0.1887
  968BF       B11836   0.091   1.542   1.225 -0.7931  0.4437  0.3136
  968BF       F11837   0.003   1.613   1.304 -0.0408  0.1963  0.3694
  968BF       F11838   0.063   1.564   1.092 -0.7694  0.1923 -0.4617
  968BF       F11839   0.218   1.576   1.258 -0.1796 -0.0499 -0.1448
  968BF       F11840   0.075   1.410   1.254  0.2284  0.1364  0.5276
  969BF       B11841   2.311   1.737   2.631 -0.2546 -1.1114  0.2248
  969BF       F11842   2.326   1.850   2.722  0.0977  0.3399 -0.0436
  969BF       F11843   2.414   1.746   2.538  0.6247  0.4570 -0.5324
  969BF       F11844   2.329   1.625   2.697 -0.2477 -0.4608 -0.0317
  969BF       F11845   2.182   1.732   2.568 -0.3394  0.2681  0.5022
  970BF       B11846   3.717   1.738   0.576 -0.1087 -0.5254  0.4284
  970BF       F11847   3.801   1.850   0.564 -0.1369 -0.5314  0.4743
  970BF       F11848   3.716   1.689   0.704  1.0261 -0.0979 -0.2915
  970BF       F11849   3.591   1.787   0.548  0.2045 -0.2742  0.1236
  970BF       F11850   3.756   1.642   0.487  0.6288 -0.3894 -0.7209
  971BF       B11851   3.335   4.860   1.187 -0.5303  0.5691 -0.4484
  971BF       F11852   3.294   4.877   1.057 -0.0533  0.3597 -0.3298
  971BF       F11853   3.474   4.890   1.189 -0.0522  0.5386 -0.1189
  971BF       F11854   3.267   4.938   1.277 -0.4292  0.4140 -0.0065
  971BF       F11855   3.328   4.726   1.226 -0.6405  0.2408 -0.0669
  972BF       B11856   1.938   4.869   1.182 -1.3143  0.1742 -0.0007
  972BF       F11857   1.934   4.761   1.266 -0.1615 -0.3161 -0.4161
  972BF       F11858   1.819   4.934   1.179  0.3514 -0.5312  0.3459
  972BF       F11859   2.042   4.951   1.223  0.7517  0.1594 -0.5736
  972BF       F11860   1.971   4.829   1.048  0.1091 -0.6382 -0.1640
  973BF       B11861   1.598   4.073   4.825 -0.7343  0.7096  0.6476
  973BF       F11862   1.629   4.197   4.874  0.6573  0.2401  0.3176
  973BF       F11863   1.465   4.048   4.850 -0.2041 -0.2432  0.5727
  973BF       F11864   1.626   4.062   4.686  0.6305 -0.0701 -0.0608
  973BF       F11865   1.674   3.980   4.899 -0.2980 -0.1454  0.4265
  974BF       B11866   3.853   3.571   0.430  0.7987 -0.0584  0.0920
  974BF       F11867   3.986   3.606   0.423 -0.2508 -0.5959  0.2681
  974BF       F11868   3.772   3.640   0.527 -0.0764  0.1446  0.4204
  974BF       F11869   3.793   3.568   0.302  0.0102  0.4158 -0.1351
  974BF       F11870   3.838   3.441   0.471  0.6196  0.1276 -0.0746
  975BF       B11871   2.775   5.103   0.525 -0.2537  0.3974  0.4142
  975BF       F11872   2.816   5.235   0.504  0.6211 -0.0983 -0.2842
  975BF       F11873   2.875   5.014   0.502  0.4091  0.4833  0.3647
  975BF       F11874   2.715   5.074   0.647 -0.0423 -0.3966 -0.1976
  975BF       F11875   2.686   5.077   0.424  0.5004 -0.1097  0.4045
  976BF       B11876   0.352   4.563   3.746  0.6100 -0.3925 -0.1127
  976BF       F11877   0.400   4.622   3.630  0.2797  0.0090 -0.3455
  976BF       F11878   0.251   4.471   3.717  0.0226  0.2235  0.5924
  976BF       F11879   0.454   4.495   3.814 -0.1768 -0.1382  0.1155
  976BF       F11880   0.300   4.664   3.833 -0.1296 -0.0586 -0.2243
  977BF       B11881   3.631   1.858   1.820 -0.3500  0.5602  0.2687
  977BF       F11882   3.629   1.987   1.877 -0.0287 -0.3150  0.4997
  977BF       F11883   3.763   1.804   1.820 -0.8111  0.0446  0.2412
  977BF       F11884   3.551   1.772   1.889 -0.7597 -0.7399 -0.0829
  977BF       F11885   3.592   1.864   1.693 -0.1432  0.2382 -0.6098
  978BF       B11886   4.860   1.741   0.749  0.3252 -0.4933  0.0510
  978BF       F11887   4.865   1.627   0.827  0.2232 -0.1907  0.2579
  978BF       F11888   4.992   1.788   0.727  0.2365  0.0564 -0.7637
  978BF       F11889   4.798   1.709   0.627  0.1676 -0.3048  0.0197
  978BF       F11890   4.787   1.834   0.817  0.1785  0.2922  0.4842
  979BF       B11891   4.461   2.505   4.150  0.2211 -0.0902 -0.1762
  979BF       F11892   4.455   2.635   4.102 -0.1015  0.0377  0.7672
  979BF       F11893   4.340   2.480   4.202 -0.1676 -0.2040  0.5546
  979BF       F11894   4.481   2.412   4.049  0.5020  0.6066 -0.0485
  979BF       F11895   4.556   2.485   4.244  0.0108 -0.0253 -0.2687
  980BF       B11896   0.389   4.775   1.139 -0.5127 -0.0917  0.1440
  980BF       F11897   0.517   4.798   1.083  0.7156 -0.4561 -0.6355
  980BF       F11898   0.373   4.858   1.248  0.2766  0.3535  0.0428
  980BF       F11899   0.294   4.818   1.047 -0.3686  0.1163 -0.3089
  980BF       F11900   0.363   4.644   1.173  0.0516  0.3735 -0.5488
  981BF       B11901   4.103   0.027   2.574  0.6440 -0.3346  0.3625
  981BF       F11902   4.135   0.026   2.710 -0.5498 -0.4523  0.1734
  981BF       F11903   4.125  -0.098   2.521  1.2936 -0.0440  0.7147
  981BF       F11904   3.972   0.071   2.552  0.0854 -0.1233 -0.3006
  981BF       F11905   4.184   0.113   2.499 -0.1481  0.0979 -0.0955
  982BF       B11906   2.297   3.466   2.353 -0.8061  0.6329  0.3938
  982BF       F11907   2.358   3.394   2.256 -0.4047  0.1188 -0.3342
  982BF       F11908   2.190   3.522   2.291  0.0740 -0.0354  0.7217
  982BF       F11909   2.243   3.391   2.460  0.0249 -0.2924 -0.0814
  982BF       F11910   2.382   3.563   2.405  0.4428 -0.0014  0.5149
  983BF       B11911   2.523   2.564   5.076  0.5116  0.0683 -0.4952
  983BF       F11912   2.555   2.615   4.952  0.3540  0.0361  0.3159
  983BF       F11913   2.520   2.422   5.074  0.3772  0.0934  0.1833
  983BF       F11914   2.619   2.610   5.162 -0.1242  0.9474  0.3668
  983BF       F11915   2.393   2.604   5.113  0.0873 -0.1760 -0.6389
  984BF       B11916   1.370   4.216   2.506 -0.0766  0.7210 -0.6857
  984BF       F11917   1.273   4.150   2.579 -0.2507 -0.6259  0.0962
  984BF       F11918   1.487   4.140   2.492 -0.3737 -0.0644  0.3016
  984BF       F11919   1.318   4.249   2.381  0.0026  0.3246 -0.1459
  984BF       F11920   1.398   4.330   2.575  0.0050 -0.2689 -0.2334
  985BF       B11921   3.981   3.662   3.380 -0.6687  0.7105  0.7247
  985BF       F11922   4.103   3.591   3.394 -0.5844 -0.2361  0.8053
  985BF       F11923   3.955   3.717   3.501 -0.0548  0.0491  0.0540
  985BF       F11924   3.997   3.757   3.279  0.3030 -0.4181  0.3816
  985BF       F11925   3.878   3.576   3.345  0.2533 -0.2624  0.2081
  986BF       B11926   2.817   4.335   4.428  0.4917 -0.2996  0.0939
  986BF       F11927   2.763   4.340   4.554  0.0451 -0.3422 -0.2992
  986BF       F11928   2.720   4.360   4.336 -0.5321 -0.1516  0.0666
  986BF       F11929   2.925   4.416   4.420 -0.4486 -0.2621 -0.1370
  986BF       F11930   2.857   4.205   4.398  0.5064 -0.5080 -0.1803
  987BF       B11931   3.844   2.827   0.884 -0.6189  0.1174  0.3937
  987BF       F11932   3.813   2.709   0.935 -0.1428  0.6100 -0.2229
  987BF       F11933   3.892   2.802   0.754 -0.2150  0.1074  0.2771
  987BF       F11934   3.739   2.911   0.889  0.3336  0.1543  0.1163
  987BF       F11935   3.950   2.880   0.958 -0.6210  0.4027 -0.1571
  988BF       B11936   2.793   1.372   2.590  0.0881 -0.8298  0.0382
  988BF       F11937   2.670   1.337   2.538  0.1105 -0.0064  0.0492
  988BF       F11938   2.846   1.488   2.526  0.3094 -0.5763 -0.7151
  988BF       F11939   2.768   1.415   2.717 -0.0133 -0.3616 -0.2906
  988BF       F11940   2.887   1.271   2.588  0.0018 -0.5618 -0.4328
  989BF       B11941   0.658   2.435   2.888  0.5702  0.0433  0.9318
  989BF       F11942   0.631   2.323   2.812  0.1655 -0.0196 -0.5323
  989BF       F11943   0.567   2.533   2.857  0.1579  0.0291 -0.0945
  989BF       F11944   0.664   2.404   3.024  0.1590  0.2904  0.3153
  989BF       F11945   0.789   2.470   2.850  0.2215 -0.1295  0.1962
  990BF       B11946   1.116   2.488   3.405 -0.3624  0.0716  0.4349
  990BF       F11947   1.211   2.384   3.390 -0.4914 -0.3736 -0.3908
  990BF       F11948   1.169   2.616   3.374  0.7270 -0.0412 -0.5408
  990BF       F11949   1.004   2.462   3.330 -0.3234 -0.0801  0.7171
  990BF       F11950   1.064   2.484   3.533 -0.4126 -0.2277 -0.4725
  991BF       B11951   1.025   1.859   2.889  0.0138  0.6326  0.4959
  991BF       F11952   1.122   1.918   2.965 -0.2589  0.1713  0.1397
  991BF       F11953   1.065   1.727   2.855  0.0006  0.0555 -0.1102
  991BF       F11954   0.904   1.853   2.960  0.3316 -0.2313 -0.0723
  991BF       F11955   1.014   1.930   2.771 -0.4527 -0.0113  0.1242
  992BF       B11956   3.698   2.964   2.341  0.3119  0.5416 -0.1207
  992BF       F11957   3.787   3.062   2.288  0.3152 -0.2290  0.1874
  992BF       F11958   3.632   2.905   2.241 -0.0334  0.3382  0.1039
  992BF       F11959   3.776   2.875   2.410  0.9117 -0.1944  0.2384
  992BF       F11960   3.610   3.028   2.431 -0.2146  0.0256  0.3538
  993BF       B11961   0.732   0.298   4.225  0.6206  0.0224 -0.7988
  993BF       F11962   0.758   0.429   4.184 -0.7990  0.4725 -0.0941
  993BF       F11963   0.598   0.293   4.257  0.0482 -0.3065  0.6429
  993BF       F11964   0.750   0.212   4.117  0.3889  0.5717 -0.3188
  993BF       F11965   0.808   0.262   4.333 -0.0519  0.2972 -0.3605
  994BF       B11966   3.549   0.005   2.782  0.0883 -0.2102  0.0273
  994BF       F11967   3.595   0.122   2.843 -0.0166  0.3135 -0.1519
  994BF       F11968   3.615  -0.004   2.665  0.6140 -0.1123 -0.1596
  994BF       F11969   3.569  -0.106   2.865 -0.0991 -0.1464 -0.1914
  994BF       F11970   3.414   0.030   2.757 -0.3389 -0.2743  0.7972
  995BF       B11971   0.438   4.676   4.244 -0.7210 -0.4331 -0.2976
  995BF       F11972   0.528   4.673   4.348 -0.0635 -0.7734 -0.0942
  995BF       F11973   0.388   4.808   4.229  0.2177 -0.1554  0.3791
  995BF       F11974   0.500   4.640   4.124 -0.0739  0.0260  0.4494
  995BF       F11975   0.339   4.583   4.276 -0.0276 -0.4274 -0.0244
  996BF       B11976   1.497   1.146   4.889 -0.4594  0.3064  0.4894
  996BF       F11977   1.486   1.093   4.761  0.0666 -0.5164  0.0059
  996BF       F11978   1.461   1.280   4.892  0.0483  0.0271  0.1348
  996BF       F11979   1.409   1.073   4.968  0.2889  0.2012 -0.3404
  996BF       F11980   1.627   1.118   4.938 -0.5405 -0.0960  0.3200
  997BF       B11981   2.783   5.039   1.118 -0.4116  0.5600  0.3070
  997BF       F11982   2.661   4.982   1.166  0.0443 -0.0433  0.4489
  997BF       F11983   2.823   4.956   1.014  0.2070 -0.1683 -0.5440
  997BF       F11984   2.762   5.170   1.080  0.3656  0.3242  0.7284
  997BF       F11985   2.889   5.033   1.215 -0.2824  0.7028  0.3602
  998BF       B11986   1.843   2.245   1.182  0.3557  0.2269 -0.3077
  998BF       F11987   1.873   2.132   1.256 -0.4833  0.0658 -0.1011
  998BF       F11988   1.886   2.231   1.055 -0.6773  0.4369  0.5319
  998BF       F11989   1.704   2.276   1.189  0.2945  0.0515  0.3105
  998BF       F11990   1.915   2.351   1.240  0.2536  0.1365 -0.0111
  999BF       B11991   0.419   1.592   0.693  1.1078 -0.0879 -0.9397
  999BF       F11992   0.415   1.536   0.565  0.8539  0.3590 -0.0778
  999BF       F11993   0.527   1.672   0.715  0.1330  0.4994  0.4155
  999BF       F11994   0.306   1.671   0.721 -0.0390  0.2146  0.2391
  999BF       F11995   0.415   1.488   0.788  0.1739  0.0992 -0.3883
 1000BF       B11996   1.411   0.816   2.152 -0.3940 -0.1969  0.1300
 1000BF       F11997   1.428   0.933   2.074  0.1958  0.3545  0.0545
 1000BF       F11998   1.534   0.759   2.184 -0.2173  0.2129  0.2875
 1000BF       F11999   1.341   0.852   2.266 -0.5691 -0.9236 -0.8661
 1000BF       F12000   1.334   0.724   2.084 -0.8857 -0.2846  0.5050
   5.12625   5.12625   5.12625
