Neat EMI BF4
12000
    1EMI    C01    1   0.920   1.634   4.453 -0.1986  0.6196  0.2002
    1EMI    C04    2   1.079   1.783   4.493 -0.2526  0.6286  0.1029
    1EMI    C03    3   1.001   1.828   4.401  0.0728  0.4099  0.2679
    1EMI    H07    4   0.863   1.544   4.449 -0.7352  0.9566  0.1650
    1EMI    H09    5   1.161   1.830   4.543 -0.1919  0.3945  0.2222
    1EMI    H08    6   0.990   1.927   4.362 -4.4694  0.2406  0.5817
    1EMI    C05    7   0.784   1.758   4.294  0.0580  0.4432 -0.0169
    1EMI    H0B    8   0.692   1.754   4.351 -0.5021 -0.9520 -0.9544
    1EMI    H0C    9   0.807   1.855   4.253  0.5521  1.6756  2.9054
    1EMI    H0D   10   0.778   1.681   4.219 -0.8666  1.0415 -0.5714
    1EMI    N00   11   0.906   1.735   4.370 -0.9022 -0.8120 -0.1163
    1EMI    C06   12   1.096   1.560   4.618  0.3607 -0.3846  0.0158
    1EMI    H0F   13   1.188   1.599   4.660  0.3551  0.4255 -0.6892
    1EMI    C0N   14   1.005   1.545   4.742  0.1566  0.0625  0.3812
    1EMI    H0O   15   0.902   1.525   4.718  0.5569 -0.2468 -1.1896
    1EMI    H0P   16   1.031   1.451   4.790 -1.3431 -0.6173 -0.0824
    1EMI    H0Q   17   1.011   1.624   4.816 -0.4608  0.8818 -0.4359
    1EMI    N02   18   1.032   1.656   4.521 -0.3243  0.3209  0.2411
    1EMI    H0E   19   1.121   1.467   4.569 -0.5140  0.4365 -2.0738
    2EMI    C01   20   4.070   4.356   4.349  0.4271 -0.0344  0.1507
    2EMI    C04   21   3.935   4.474   4.232 -0.1060  0.1608 -0.9755
    2EMI    C03   22   3.998   4.385   4.152  0.2519  0.0856  0.3604
    2EMI    H07   23   4.134   4.318   4.425  1.6945 -1.2009 -1.4306
    2EMI    H09   24   3.856   4.543   4.213 -0.5199 -0.4111 -1.3486
    2EMI    H08   25   3.984   4.352   4.051 -0.5902  0.4894  0.3344
    2EMI    C05   26   4.200   4.238   4.178  0.6465  0.2709 -0.5676
    2EMI    H0B   27   4.296   4.255   4.224  0.7227 -1.8537  0.1582
    2EMI    H0C   28   4.183   4.134   4.202  1.3376  0.6363  1.8240
    2EMI    H0D   29   4.211   4.237   4.071 -2.7071 -0.3048 -1.0260
    2EMI    N00   30   4.086   4.318   4.228  0.2252 -0.0659 -0.6279
    2EMI    C06   31   3.947   4.529   4.478 -0.3292  0.7763  0.3585
    2EMI    H0F   32   3.980   4.630   4.459 -0.7887  0.9987  0.7187
    2EMI    C0N   33   3.804   4.501   4.504  0.4557 -0.0331 -0.0422
    2EMI    H0O   34   3.739   4.578   4.462  0.0805 -0.5166 -0.3532
    2EMI    H0P   35   3.760   4.414   4.458 -0.7179  0.4348  0.1402
    2EMI    H0Q   36   3.768   4.501   4.607 -0.6395  0.2520 -0.4070
    2EMI    N02   37   3.990   4.458   4.357 -0.0785  0.8057 -0.3113
    2EMI    H0E   38   4.002   4.493   4.564 -0.8672 -0.3295  0.2613
    3EMI    C01   39   0.047   0.971   4.994 -0.6134 -0.1114  0.0880
    3EMI    C04   40   0.187   0.874   5.136  0.3353  0.7728 -0.4619
    3EMI    C03   41   0.185   0.806   5.023 -1.0038  0.5313  0.8312
    3EMI    H07   42  -0.020   1.040   4.947 -0.0227  1.0484  0.9036
    3EMI    H09   43   0.249   0.864   5.223  1.9315 -1.6070 -1.7493
    3EMI    H08   44   0.240   0.719   4.995 -1.4253  0.2024  1.0309
    3EMI    C05   45   0.046   0.807   4.806 -0.1367 -0.1614 -0.2739
    3EMI    H0B   46   0.003   0.894   4.759  2.1220 -0.2565 -2.7240
    3EMI    H0C   47   0.135   0.781   4.751  0.7154  2.0972 -0.0350
    3EMI    H0D   48  -0.028   0.731   4.831 -2.4871  2.5279  1.5478
    3EMI    N00   49   0.093   0.863   4.935  0.0473  0.2489  0.0874
    3EMI    C06   50   0.084   1.093   5.211  0.2298 -0.8285  0.2400
    3EMI    H0F   51   0.062   1.046   5.306  2.4547  0.1360  1.3025
    3EMI    C0N   52   0.210   1.179   5.204 -0.1936 -0.4826  0.2749
    3EMI    H0O   53   0.289   1.117   5.243 -0.0163 -0.8454 -0.6403
    3EMI    H0P   54   0.247   1.209   5.107  2.0080  1.1843  1.5198
    3EMI    H0Q   55   0.207   1.272   5.261  0.2034 -0.8938  0.9857
    3EMI    N02   56   0.106   0.981   5.114  0.8912 -0.7307 -0.0124
    3EMI    H0E   57  -0.009   1.138   5.178  0.7234 -0.7649 -1.0973
    4EMI    C01   58   4.317   2.544   5.013  0.3898  0.0388 -0.2544
    4EMI    C04   59   4.274   2.339   5.065  0.4040  0.6724 -0.0144
    4EMI    C03   60   4.178   2.415   5.118  0.0551  0.1531 -0.2807
    4EMI    H07   61   4.361   2.632   4.972 -1.8563  1.8365  0.9543
    4EMI    H09   62   4.294   2.235   5.056 -0.2331  0.3606  1.7451
    4EMI    H08   63   4.090   2.384   5.170  0.7335 -0.3564  0.5861
    4EMI    C05   64   4.123   2.658   5.119 -0.2483  0.4813 -0.2484
    4EMI    H0B   65   4.131   2.739   5.049  1.6056  2.4588  2.0484
    4EMI    H0C   66   4.020   2.628   5.112 -0.4626  0.6018  1.7735
    4EMI    H0D   67   4.147   2.706   5.213  1.4902  1.1329 -0.9862
    4EMI    N00   68   4.207   2.541   5.084  0.1342 -0.8491  0.2151
    4EMI    C06   69   4.494   2.388   4.936 -0.2187  0.1763  0.8518
    4EMI    H0F   70   4.517   2.293   4.981 -0.7268  0.4102  1.6190
    4EMI    C0N   71   4.475   2.372   4.786 -0.3588  0.3802 -0.0148
    4EMI    H0O   72   4.507   2.471   4.753  2.0350 -0.3927 -0.1970
    4EMI    H0P   73   4.547   2.300   4.750 -0.9701 -0.2692  0.0478
    4EMI    H0Q   74   4.382   2.338   4.742 -0.3112 -1.2780  1.0738
    4EMI    N02   75   4.369   2.422   5.006  0.2419 -0.4327  0.2148
    4EMI    H0E   76   4.565   2.465   4.962  1.6268 -1.2240  0.2150
    5EMI    C01   77   4.769   1.312   4.530  0.1169  0.6209  0.8350
    5EMI    C04   78   4.722   1.411   4.339 -0.7166  0.3767 -0.0963
    5EMI    C03   79   4.841   1.456   4.384 -0.4948 -0.4471  0.1380
    5EMI    H07   80   4.759   1.255   4.620 -1.7596 -0.2825  0.1047
    5EMI    H09   81   4.674   1.434   4.247  1.3244  0.4785 -1.1834
    5EMI    H08   82   4.905   1.527   4.336 -1.4416  0.8454  0.7430
    5EMI    C05   83   4.976   1.429   4.596 -0.2735  0.2178 -0.2045
    5EMI    H0B   84   4.959   1.533   4.621  0.9304  1.3229 -3.4390
    5EMI    H0C   85   4.983   1.367   4.684  1.2555 -0.0497 -0.4821
    5EMI    H0D   86   5.065   1.412   4.537 -1.8013 -0.1505 -2.5342
    5EMI    N00   87   4.859   1.399   4.510 -0.2241  0.2778  0.5380
    5EMI    C06   88   4.562   1.233   4.420  0.4282  0.5161 -0.0227
    5EMI    H0F   89   4.550   1.196   4.521  0.7168  1.6733  0.4425
    5EMI    C0N   90   4.442   1.314   4.360 -0.6453 -0.4250 -0.6423
    5EMI    H0O   91   4.441   1.418   4.389  0.1848 -0.4246 -0.6000
    5EMI    H0P   92   4.451   1.311   4.252 -1.4738  0.8862 -0.7681
    5EMI    H0Q   93   4.353   1.260   4.392  0.9740 -2.5319  0.5790
    5EMI    N02   94   4.682   1.313   4.432  0.3182 -0.4812  0.3109
    5EMI    H0E   95   4.574   1.145   4.359 -2.8285 -0.2702  0.3126
    6EMI    C01   96   0.451   0.604   1.659 -0.1820  0.0467 -0.1878
    6EMI    C04   97   0.638   0.638   1.559  0.2644  0.2076  0.0496
    6EMI    C03   98   0.580   0.753   1.564  0.5419  0.4192  0.0819
    6EMI    H07   99   0.362   0.559   1.697  0.4017 -2.3559 -1.4621
    6EMI    H09  100   0.737   0.618   1.523  1.7163  0.6700  3.3787
    6EMI    H08  101   0.616   0.848   1.532  1.1660 -0.2090 -1.1853
    6EMI    C05  102   0.344   0.825   1.623 -0.0326  0.9008  0.4020
    6EMI    H0B  103   0.262   0.796   1.560  0.1465 -1.3983  1.1392
    6EMI    H0C  104   0.311   0.835   1.726 -0.2581 -1.9227  0.6761
    6EMI    H0D  105   0.380   0.922   1.591  1.4887  0.0577 -0.5531
    6EMI    N00  106   0.455   0.728   1.623  0.1375 -0.0478  0.2497
    6EMI    C06  107   0.595   0.399   1.645  1.1536 -0.8009  0.4360
    6EMI    H0F  108   0.572   0.346   1.554  1.8369 -1.0740  0.4209
    6EMI    C0N  109   0.736   0.391   1.678  0.5235 -0.2512 -0.2789
    6EMI    H0O  110   0.772   0.407   1.577 -1.3674  1.4120 -0.7426
    6EMI    H0P  111   0.765   0.469   1.747 -0.5362 -0.9536  1.0268
    6EMI    H0Q  112   0.759   0.297   1.728 -0.8561  0.4556  1.8341
    6EMI    N02  113   0.560   0.542   1.622 -1.2163 -0.2796 -0.2939
    6EMI    H0E  114   0.531   0.362   1.724  2.4257 -0.8425  1.4910
    7EMI    C01  115   0.590   2.035   3.276 -0.2086  0.4330 -0.4445
    7EMI    C04  116   0.374   2.010   3.231 -0.4119 -0.5028 -0.3175
    7EMI    C03  117   0.437   2.048   3.122  0.3754  0.2312  0.3348
    7EMI    H07  118   0.685   2.031   3.324  0.3631  1.4808 -1.4406
    7EMI    H09  119   0.274   1.975   3.247 -0.2119 -1.6010 -1.4054
    7EMI    H08  120   0.391   2.048   3.026 -0.6446 -1.1128  0.7956
    7EMI    C05  121   0.683   2.097   3.061  0.7518 -0.3829 -0.2002
    7EMI    H0B  122   0.636   2.088   2.964 -2.5196 -3.2584  1.4294
    7EMI    H0C  123   0.707   2.199   3.084  2.4437 -1.1860  1.8831
    7EMI    H0D  124   0.761   2.026   3.083  0.5240 -0.1731  1.4353
    7EMI    N00  125   0.571   2.062   3.150 -0.2801 -0.2852  0.2931
    7EMI    C06  126   0.458   1.977   3.472 -0.6921  0.3173 -0.6735
    7EMI    H0F  127   0.561   1.965   3.504 -1.1145  0.7539  0.9647
    7EMI    C0N  128   0.386   2.083   3.554 -0.2902 -0.2224 -0.1075
    7EMI    H0O  129   0.289   2.081   3.507 -0.0579  0.4644 -0.6445
    7EMI    H0P  130   0.383   2.058   3.659  2.3153  0.2553  0.1654
    7EMI    H0Q  131   0.425   2.184   3.545  1.9458 -1.1556 -2.4938
    7EMI    N02  132   0.476   2.008   3.330  0.1711  0.3084 -0.1951
    7EMI    H0E  133   0.414   1.881   3.496  2.6644 -1.0889  0.4714
    8EMI    C01  134   4.650   4.876   0.356 -0.1685  0.0314 -0.4916
    8EMI    C04  135   4.750   4.696   0.412 -0.0140  0.3255  0.1775
    8EMI    C03  136   4.720   4.681   0.285 -0.7174 -0.3736  1.0690
    8EMI    H07  137   4.594   4.967   0.355 -1.1126 -0.5380 -0.9644
    8EMI    H09  138   4.788   4.620   0.477  0.9780  1.0239  0.4313
    8EMI    H08  139   4.736   4.592   0.229 -0.4634  0.2155  0.1805
    8EMI    C05  140   4.655   4.858   0.115  0.2591 -0.1765  0.3779
    8EMI    H0B  141   4.712   4.949   0.118 -0.2728  0.1439  1.8748
    8EMI    H0C  142   4.689   4.789   0.039 -2.9205  0.4068 -1.7836
    8EMI    H0D  143   4.555   4.895   0.098  0.6361  1.2954  1.1957
    8EMI    N00  144   4.670   4.805   0.248  0.2156 -0.3867  0.1731
    8EMI    C06  145   4.723   4.864   0.594 -0.4445  0.5160  0.2751
    8EMI    H0F  146   4.704   4.775   0.653  1.7406 -1.7032 -2.1269
    8EMI    C0N  147   4.849   4.933   0.636 -0.3151  0.3304  0.4470
    8EMI    H0O  148   4.940   4.882   0.607  1.1300  2.5099  0.9025
    8EMI    H0P  149   4.869   5.023   0.579 -0.4911  0.6184  0.8429
    8EMI    H0Q  150   4.851   4.956   0.742 -2.2657 -0.7222  0.7518
    8EMI    N02  151   4.708   4.816   0.456  0.4546 -0.0054  0.2005
    8EMI    H0E  152   4.636   4.924   0.616 -1.1974 -0.7566  0.9219
    9EMI    C01  153   0.274   2.218   4.488  0.2193  0.4550  0.6650
    9EMI    C04  154   0.144   2.393   4.445  0.0933 -0.8708 -0.5692
    9EMI    C03  155   0.247   2.435   4.520 -0.2662  0.3041 -0.0228
    9EMI    H07  156   0.316   2.120   4.489 -1.9080 -0.5663 -0.8294
    9EMI    H09  157   0.055   2.443   4.412  0.1046  0.8797  1.7578
    9EMI    H08  158   0.265   2.527   4.570  0.5604 -0.5095  1.2137
    9EMI    C05  159   0.453   2.328   4.601 -0.9845  0.5500 -0.8699
    9EMI    H0B  160   0.450   2.368   4.701  1.2396  0.0330 -0.5423
    9EMI    H0C  161   0.474   2.226   4.629 -0.7989  1.1572  1.3583
    9EMI    H0D  162   0.531   2.375   4.543  0.3188  0.6464  0.8678
    9EMI    N00  163   0.331   2.326   4.529  0.7605 -0.2334 -0.6772
    9EMI    C06  164   0.085   2.174   4.330 -0.4647 -0.5222  0.2113
    9EMI    H0F  165  -0.011   2.163   4.379 -0.2801  1.6713  1.1785
    9EMI    C0N  166   0.075   2.243   4.196 -0.3433  0.1710  1.0062
    9EMI    H0O  167   0.094   2.350   4.200 -2.0650  0.4732  1.9482
    9EMI    H0P  168   0.143   2.196   4.125 -2.2845 -0.6981 -0.3743
    9EMI    H0Q  169  -0.025   2.229   4.157  0.1883  2.0493 -1.2641
    9EMI    N02  170   0.171   2.259   4.414  0.0400  0.8087 -0.0708
    9EMI    H0E  171   0.122   2.073   4.324 -0.8510 -0.6202 -0.7825
   10EMI    C01  172   4.761   0.877   2.562  0.1689  0.6512  0.5063
   10EMI    C04  173   4.857   1.073   2.577 -0.3407  0.0830  0.0326
   10EMI    C03  174   4.730   1.088   2.562  0.6259 -0.2320  0.1506
   10EMI    H07  175   4.735   0.775   2.544 -0.4000  0.7133  0.9535
   10EMI    H09  176   4.936   1.144   2.592  0.3739 -0.9597  1.4329
   10EMI    H08  177   4.663   1.171   2.561  0.9170  0.0166  0.8316
   10EMI    C05  178   4.520   0.945   2.524  0.3977 -0.5319 -0.5253
   10EMI    H0B  179   4.453   0.987   2.598  1.1982  0.5375 -0.3731
   10EMI    H0C  180   4.495   0.987   2.428  2.2403  0.4591 -0.6193
   10EMI    H0D  181   4.505   0.838   2.518 -1.5801 -0.4156  1.2423
   10EMI    N00  182   4.665   0.969   2.555 -0.8640  0.3898  0.5670
   10EMI    C06  183   5.001   0.865   2.607  0.5603 -0.9717  0.2295
   10EMI    H0F  184   5.072   0.921   2.666  0.5857  1.8609 -2.2308
   10EMI    C0N  185   4.997   0.727   2.667  0.5407 -0.8568  1.1961
   10EMI    H0O  186   4.919   0.666   2.624  0.5899 -0.5655  0.6774
   10EMI    H0P  187   5.086   0.667   2.653  1.7849  1.1658 -0.0786
   10EMI    H0Q  188   4.973   0.748   2.771 -0.3129 -1.0886  1.0535
   10EMI    N02  189   4.876   0.939   2.583 -0.1007  0.0731 -0.0228
   10EMI    H0E  190   5.052   0.864   2.512  0.3492  1.5226  0.0169
   11EMI    C01  191   4.812   1.893   1.259 -0.4507 -0.0305 -0.2879
   11EMI    C04  192   4.619   1.965   1.227  0.2701 -0.9067  0.1723
   11EMI    C03  193   4.613   1.906   1.347 -0.3902 -0.7147  0.4501
   11EMI    H07  194   4.918   1.884   1.245 -0.0646  1.6438  1.2823
   11EMI    H09  195   4.541   2.023   1.183  1.0205 -0.1976 -0.2530
   11EMI    H08  196   4.526   1.903   1.409 -1.5608  0.6954 -1.0303
   11EMI    C05  197   4.777   1.776   1.482  0.2965 -0.3596 -0.0763
   11EMI    H0B  198   4.697   1.708   1.505 -0.8470  1.0414  0.2117
   11EMI    H0C  199   4.874   1.742   1.449  0.8709  0.5522  0.6113
   11EMI    H0D  200   4.787   1.841   1.568 -4.2176  2.8757 -1.6339
   11EMI    N00  201   4.737   1.857   1.365 -0.4209  0.6295 -0.1800
   11EMI    C06  202   4.780   2.006   1.042  0.1018  0.3317 -0.8115
   11EMI    H0F  203   4.748   2.108   1.060 -1.5164  0.0104 -1.6327
   11EMI    C0N  204   4.925   1.989   1.005 -0.0099  0.0631 -0.3500
   11EMI    H0O  205   4.943   1.888   0.971 -2.8848 -0.2294 -1.3548
   11EMI    H0P  206   4.950   2.058   0.925 -0.4542 -0.8051 -1.2485
   11EMI    H0Q  207   4.993   2.013   1.086 -1.1261 -2.4653  1.4913
   11EMI    N02  208   4.737   1.942   1.166 -0.8734 -0.1153  0.0702
   11EMI    H0E  209   4.728   1.972   0.954  2.4644  2.1658 -3.0778
   12EMI    C01  210   1.499   2.285   1.442 -0.1758 -0.4180 -0.2223
   12EMI    C04  211   1.587   2.404   1.607  0.1489  0.3143  0.0664
   12EMI    C03  212   1.455   2.429   1.595  0.2695 -0.4704 -0.1597
   12EMI    H07  213   1.483   2.211   1.366 -0.9033 -1.7020  1.1266
   12EMI    H09  214   1.666   2.442   1.667  1.9270  1.4084 -2.7622
   12EMI    H08  215   1.405   2.514   1.636 -0.3009  1.5798 -4.5305
   12EMI    C05  216   1.263   2.351   1.450 -0.1911  0.6608  0.3345
   12EMI    H0B  217   1.261   2.317   1.348  3.3363 -2.5130  1.1204
   12EMI    H0C  218   1.206   2.281   1.510  0.2104  0.2909  0.2855
   12EMI    H0D  219   1.226   2.453   1.455 -3.3900 -0.1585 -2.7475
   12EMI    N00  220   1.403   2.349   1.497  0.0784  0.3315  0.2270
   12EMI    C06  221   1.746   2.256   1.477 -0.5119  0.3537 -0.1569
   12EMI    H0F  222   1.817   2.336   1.464 -0.1436 -0.1241 -1.1753
   12EMI    C0N  223   1.780   2.153   1.580  0.1553  0.3466 -0.6822
   12EMI    H0O  224   1.809   2.204   1.671 -0.2035  1.1750 -1.0178
   12EMI    H0P  225   1.694   2.092   1.603 -0.5655  1.3595 -0.6319
   12EMI    H0Q  226   1.871   2.096   1.562  0.1461  0.0931  0.0461
   12EMI    N02  227   1.611   2.315   1.504  0.2390 -0.2764 -0.0105
   12EMI    H0E  228   1.735   2.217   1.377 -2.1534  1.7083 -0.5518
   13EMI    C01  229   0.266   1.670   3.918  0.0968  0.3734 -0.4495
   13EMI    C04  230   0.132   1.567   4.058 -0.2313  0.2753  0.3359
   13EMI    C03  231   0.157   1.687   4.110 -0.3533  0.3116 -0.9302
   13EMI    H07  232   0.331   1.698   3.838 -1.4971  1.7626 -1.3498
   13EMI    H09  233   0.073   1.479   4.077 -0.2069  0.3636  0.8119
   13EMI    H08  234   0.121   1.740   4.196  0.8647 -0.0669 -0.1638
   13EMI    C05  235   0.310   1.879   4.049  0.6656  0.2165  0.3717
   13EMI    H0B  236   0.281   1.951   3.975 -0.2247  0.2440  0.7292
   13EMI    H0C  237   0.284   1.920   4.146  0.5478  1.5788 -0.2164
   13EMI    H0D  238   0.416   1.861   4.038  0.6719  1.7896 -4.2827
   13EMI    N00  239   0.240   1.748   4.020  0.2195 -0.7872 -0.6309
   13EMI    C06  240   0.205   1.440   3.853 -0.1181 -0.4444  0.3996
   13EMI    H0F  241   0.255   1.471   3.762  0.1645  2.1282  1.3337
   13EMI    C0N  242   0.272   1.327   3.913 -0.3313 -0.5118  0.2186
   13EMI    H0O  243   0.200   1.247   3.915 -0.6441 -0.2229  0.6290
   13EMI    H0P  244   0.366   1.313   3.860  0.0839  0.5303  0.6506
   13EMI    H0Q  245   0.300   1.350   4.016 -1.5828  0.7233  0.3107
   13EMI    N02  246   0.211   1.560   3.940  0.5575 -0.3315  0.2497
   13EMI    H0E  247   0.097   1.434   3.847 -0.1494  0.4974 -0.1982
   14EMI    C01  248   3.305   2.447   2.802  0.0302 -0.9130 -0.8649
   14EMI    C04  249   3.317   2.357   2.607 -0.7572 -0.7711  0.8978
   14EMI    C03  250   3.338   2.261   2.698  0.4440  0.3287 -0.8262
   14EMI    H07  251   3.317   2.521   2.879 -1.0828 -0.6964 -0.8873
   14EMI    H09  252   3.305   2.339   2.503 -1.6675 -1.2229  1.0703
   14EMI    H08  253   3.354   2.157   2.680 -1.8276  0.0440 -1.5459
   14EMI    C05  254   3.334   2.258   2.942  0.5095 -0.6527  0.2398
   14EMI    H0B  255   3.247   2.196   2.955  1.1258 -1.6897 -0.4391
   14EMI    H0C  256   3.421   2.193   2.947  2.0113  1.2982  0.8460
   14EMI    H0D  257   3.346   2.330   3.022  4.7611  1.1162 -1.6470
   14EMI    N00  258   3.327   2.322   2.819 -0.5971  0.0239  0.7287
   14EMI    C06  259   3.288   2.608   2.615 -0.8184  0.0243  0.3000
   14EMI    H0F  260   3.312   2.679   2.692  1.4221  0.4521 -0.6973
   14EMI    C0N  261   3.391   2.634   2.514  0.8008  0.8975  0.0785
   14EMI    H0O  262   3.360   2.721   2.457  1.1737  0.7312 -0.3822
   14EMI    H0P  263   3.488   2.647   2.561  1.0003 -0.4920  0.0818
   14EMI    H0Q  264   3.395   2.558   2.437 -3.7375 -1.4006  1.7044
   14EMI    N02  265   3.296   2.475   2.673 -0.1762  0.5233  0.0499
   14EMI    H0E  266   3.191   2.626   2.570  0.6770  3.5886 -1.9798
   15EMI    C01  267   1.264   3.361   0.596  0.3315 -0.0762  0.0202
   15EMI    C04  268   1.109   3.506   0.618  0.0925 -0.0979 -0.2922
   15EMI    C03  269   1.197   3.550   0.539 -0.6424  0.3740  0.7039
   15EMI    H07  270   1.331   3.279   0.605  0.9357  0.3423 -0.5216
   15EMI    H09  271   1.020   3.549   0.658  1.5521  2.4929  0.3924
   15EMI    H08  272   1.204   3.645   0.491  0.6942 -0.5909 -1.1247
   15EMI    C05  273   1.414   3.466   0.435 -0.3701  0.2237  0.0130
   15EMI    H0B  274   1.434   3.570   0.415  1.8661 -0.2767 -0.7162
   15EMI    H0C  275   1.504   3.425   0.479 -0.0090  1.2144  0.2254
   15EMI    H0D  276   1.379   3.427   0.341 -0.7024 -1.9075  0.9661
   15EMI    N00  277   1.302   3.461   0.527 -0.2708 -0.0149 -0.3860
   15EMI    C06  278   1.091   3.297   0.763  0.2753 -0.2359  0.0032
   15EMI    H0F  279   1.048   3.363   0.837 -1.3327  1.5084 -2.3429
   15EMI    C0N  280   0.978   3.206   0.721  0.1846 -0.0373  0.2093
   15EMI    H0O  281   0.990   3.104   0.755  0.2399  0.8911  3.2716
   15EMI    H0P  282   0.894   3.235   0.782  1.3678 -0.5908  2.2000
   15EMI    H0Q  283   0.935   3.205   0.622 -0.5539  1.9076  0.4602
   15EMI    N02  284   1.148   3.383   0.655 -0.0422 -0.4655  0.2988
   15EMI    H0E  285   1.169   3.250   0.820  0.6420  0.7874  0.3727
   16EMI    C01  286   4.623   1.602   2.173  0.0146 -0.2282  0.5242
   16EMI    C04  287   4.445   1.643   2.057  0.0133 -1.0830 -0.4143
   16EMI    C03  288   4.405   1.592   2.173  0.1412  0.2311 -0.1469
   16EMI    H07  289   4.727   1.583   2.193  0.7698 -0.8227 -3.2181
   16EMI    H09  290   4.377   1.678   1.982 -2.1384 -1.3406  1.3100
   16EMI    H08  291   4.308   1.556   2.200 -0.1610 -0.3317 -1.8232
   16EMI    C05  292   4.532   1.479   2.369 -0.5375 -0.6358  0.2789
   16EMI    H0B  293   4.430   1.470   2.405 -0.7443 -0.0714 -0.1322
   16EMI    H0C  294   4.583   1.384   2.363  3.0290  1.1281  0.1191
   16EMI    H0D  295   4.588   1.542   2.437 -0.2645 -1.5230  0.8820
   16EMI    N00  296   4.519   1.549   2.234 -0.4642 -0.3573 -0.8455
   16EMI    C06  297   4.657   1.758   1.970 -0.1243 -0.1953  0.5343
   16EMI    H0F  298   4.757   1.744   2.008  0.1020  2.4179  1.0557
   16EMI    C0N  299   4.634   1.715   1.828 -0.2093 -0.0749  0.2194
   16EMI    H0O  300   4.719   1.742   1.767 -0.8854 -2.0152 -1.6859
   16EMI    H0P  301   4.632   1.607   1.824  0.9162 -0.0680 -0.8232
   16EMI    H0Q  302   4.551   1.762   1.775  1.0901  0.7145 -1.1886
   16EMI    N02  303   4.580   1.674   2.064 -0.2801  0.6178 -0.0632
   16EMI    H0E  304   4.637   1.863   1.984 -1.3004 -0.0564 -1.7692
   17EMI    C01  305   0.062   0.206   4.304 -0.2022 -0.5682 -0.4128
   17EMI    C04  306  -0.086   0.166   4.466  0.3616 -0.5665 -0.1024
   17EMI    C03  307  -0.144   0.165   4.346  0.8058  0.3731  0.1743
   17EMI    H07  308   0.153   0.224   4.250  1.3420 -0.1435  2.1483
   17EMI    H09  309  -0.113   0.157   4.568  2.5154 -0.1727  0.5661
   17EMI    H08  310  -0.248   0.165   4.321  0.6099 -0.5515  0.9410
   17EMI    C05  311  -0.086   0.214   4.105  0.5243  0.6215  0.5539
   17EMI    H0B  312  -0.154   0.139   4.069  0.1018  0.5796  1.4060
   17EMI    H0C  313  -0.144   0.305   4.100 -0.1948  0.1286 -0.3956
   17EMI    H0D  314   0.002   0.227   4.044 -0.0885 -1.3160 -0.8197
   17EMI    N00  315  -0.052   0.191   4.246  0.5506 -0.4760  0.3475
   17EMI    C06  316   0.147   0.214   4.548  0.1872 -0.7236  0.5378
   17EMI    H0F  317   0.174   0.120   4.593  1.3045  0.0909  1.6426
   17EMI    C0N  318   0.271   0.292   4.508 -0.4758  0.8259 -0.0813
   17EMI    H0O  319   0.339   0.302   4.592  0.5295 -0.4964 -0.7011
   17EMI    H0P  320   0.323   0.228   4.438 -2.6496  0.5698 -1.5495
   17EMI    H0Q  321   0.242   0.382   4.454 -2.0699  1.1268  1.2171
   17EMI    N02  322   0.046   0.191   4.435 -1.1628 -0.7785 -0.5314
   17EMI    H0E  323   0.095   0.265   4.627 -3.7195 -0.3498 -1.9832
   18EMI    C01  324   2.928   2.234   2.818  0.4456 -0.9406 -0.6095
   18EMI    C04  325   2.904   2.096   2.987  0.4235  0.2619  0.0264
   18EMI    C03  326   2.900   2.027   2.869 -0.6116  0.8984  0.1923
   18EMI    H07  327   2.949   2.318   2.755 -0.5490 -0.4970 -0.3685
   18EMI    H09  328   2.898   2.067   3.089  0.9018 -1.1044 -0.3111
   18EMI    H08  329   2.911   1.921   2.865  1.1914  1.0727 -0.3205
   18EMI    C05  330   2.944   2.074   2.630  0.7227 -0.0895  0.2441
   18EMI    H0B  331   2.866   2.098   2.560  0.0458 -1.2464  0.5699
   18EMI    H0C  332   3.040   2.108   2.594  0.4305  0.5208  0.0363
   18EMI    H0D  333   2.956   1.967   2.640  1.6782  0.1234  1.8312
   18EMI    N00  334   2.910   2.114   2.766 -0.4670  0.9274 -0.6062
   18EMI    C06  335   2.905   2.342   3.052  0.0913  0.2188 -0.0214
   18EMI    H0F  336   2.891   2.436   3.000 -0.1836 -0.7580 -1.7749
   18EMI    C0N  337   2.793   2.316   3.141  0.7404  0.0041 -0.4528
   18EMI    H0O  338   2.785   2.396   3.214  1.0433 -0.5068  0.1515
   18EMI    H0P  339   2.702   2.331   3.085  0.6638 -0.0595 -0.3468
   18EMI    H0Q  340   2.794   2.224   3.199  0.2202 -1.3839 -2.5291
   18EMI    N02  341   2.911   2.233   2.953  0.4025  0.3594 -0.7151
   18EMI    H0E  342   2.999   2.349   3.104  0.7831 -3.0224 -0.6312
   19EMI    C01  343   0.742   3.946   2.870  0.2767  0.5446 -0.1934
   19EMI    C04  344   0.872   3.783   2.952 -0.1864  0.0802  0.9814
   19EMI    C03  345   0.773   3.729   2.873 -0.7346  0.1558 -0.4460
   19EMI    H07  346   0.710   4.047   2.854  1.8608  1.4451  1.8562
   19EMI    H09  347   0.955   3.740   3.004  0.7805 -0.3082 -0.8240
   19EMI    H08  348   0.740   3.630   2.850 -1.2910  0.3690 -0.5764
   19EMI    C05  349   0.582   3.815   2.733  0.1177 -0.1937 -1.4165
   19EMI    H0B  350   0.527   3.903   2.705 -0.3488 -0.2134 -0.6030
   19EMI    H0C  351   0.604   3.751   2.649 -1.6332  1.6973 -3.4049
   19EMI    H0D  352   0.519   3.753   2.796 -2.1134 -0.0784 -3.3958
   19EMI    N00  353   0.699   3.836   2.818 -0.9188  0.3585 -0.9118
   19EMI    C06  354   0.919   4.025   3.024  0.0493  0.5355 -0.0215
   19EMI    H0F  355   0.907   4.005   3.130  0.2978 -0.3249 -0.1466
   19EMI    C0N  356   1.059   4.037   2.982  0.3171  0.3896 -0.1021
   19EMI    H0O  357   1.074   4.020   2.876  0.2029 -1.4279  0.1293
   19EMI    H0P  358   1.095   4.136   3.005  1.0442  0.5446 -1.7794
   19EMI    H0Q  359   1.111   3.957   3.035 -1.2255 -0.2981  0.4472
   19EMI    N02  360   0.844   3.918   2.953  0.1463 -0.0043  0.9832
   19EMI    H0E  361   0.865   4.116   3.006 -0.0427  0.5842  0.4852
   20EMI    C01  362   2.365   0.946   0.477  0.1641  0.2595 -0.0278
   20EMI    C04  363   2.196   0.946   0.609  0.0386  0.0187  0.5315
   20EMI    C03  364   2.306   0.953   0.687 -0.2398 -0.3906 -0.2974
   20EMI    H07  365   2.415   0.956   0.383  1.2302 -2.7311  0.1210
   20EMI    H09  366   2.096   0.948   0.646  0.0711  0.1859  0.6108
   20EMI    H08  367   2.318   0.956   0.793 -0.1766 -1.3606 -0.2749
   20EMI    C05  368   2.549   0.958   0.643  0.0059  0.2459 -0.1549
   20EMI    H0B  369   2.565   0.946   0.749  1.0930  1.3656 -0.1658
   20EMI    H0C  370   2.605   0.877   0.598 -2.0444 -1.1945 -0.2467
   20EMI    H0D  371   2.597   1.050   0.613  1.5661  0.0684  1.6529
   20EMI    N00  372   2.411   0.957   0.600  0.1334 -0.0578  0.7589
   20EMI    C06  373   2.151   0.942   0.360  0.4370 -0.4923  0.0254
   20EMI    H0F  374   2.097   0.854   0.327  0.1266  0.3264 -1.7595
   20EMI    C0N  375   2.062   1.059   0.376 -0.2888  0.7102 -0.2768
   20EMI    H0O  376   2.032   1.086   0.275 -0.2679  1.1423 -0.1685
   20EMI    H0P  377   1.978   1.057   0.445 -0.5881  1.9274 -0.5883
   20EMI    H0Q  378   2.126   1.140   0.407  0.6593 -0.4749  1.0128
   20EMI    N02  379   2.237   0.940   0.478  0.5652  0.0314 -0.4557
   20EMI    H0E  380   2.214   0.976   0.279  0.4498  1.6552  0.8684
   21EMI    C01  381   4.898   0.794   2.143 -0.5800  0.0919  0.1351
   21EMI    C04  382   4.725   0.900   2.214  0.6460 -0.1655  0.2716
   21EMI    C03  383   4.831   0.971   2.248 -0.4914  0.2885  0.1809
   21EMI    H07  384   4.967   0.720   2.107  0.3079  0.6509  0.6521
   21EMI    H09  385   4.621   0.918   2.229  0.3614 -0.7209 -0.9664
   21EMI    H08  386   4.848   1.055   2.311  2.3662  0.0492 -0.1664
   21EMI    C05  387   5.074   0.971   2.173 -0.1725 -0.0063  0.0614
   21EMI    H0B  388   5.086   1.039   2.256 -3.3551  0.1147  0.5547
   21EMI    H0C  389   5.156   0.901   2.178  1.8203  2.0824 -1.3312
   21EMI    H0D  390   5.079   1.014   2.074  0.5104  0.6028  0.3467
   21EMI    N00  391   4.941   0.910   2.191  0.2372 -0.3230 -0.0716
   21EMI    C06  392   4.676   0.685   2.087  0.3172  0.7275  0.0561
   21EMI    H0F  393   4.740   0.603   2.059 -2.4280 -1.3726 -0.5439
   21EMI    C0N  394   4.578   0.626   2.196  0.3154 -0.2477 -0.1952
   21EMI    H0O  395   4.484   0.680   2.198 -1.7689 -3.5193 -1.1206
   21EMI    H0P  396   4.550   0.523   2.175  0.6057 -0.3943  0.1399
   21EMI    H0Q  397   4.621   0.628   2.295 -0.4598 -1.7901  0.2033
   21EMI    N02  398   4.767   0.791   2.142 -0.1389  0.0930  0.8955
   21EMI    H0E  399   4.615   0.702   2.000 -0.1708 -2.5262 -0.3905
   22EMI    C01  400   0.974   2.869   3.454  0.5726  0.9424  0.1926
   22EMI    C04  401   1.151   2.994   3.488 -0.1144  0.2913  0.1725
   22EMI    C03  402   1.137   2.912   3.593  0.2886 -0.4748 -0.0645
   22EMI    H07  403   0.888   2.826   3.407  1.0067  0.1904  0.0722
   22EMI    H09  404   1.233   3.058   3.466 -0.6499  0.8195 -0.3143
   22EMI    H08  405   1.209   2.901   3.671  1.0919  0.5732 -0.6374
   22EMI    C05  406   0.977   2.718   3.657 -0.1360  0.0247 -0.0254
   22EMI    H0B  407   0.957   2.639   3.586 -2.6034  1.3336 -0.9045
   22EMI    H0C  408   1.051   2.681   3.726 -0.0365 -1.9150 -1.1056
   22EMI    H0D  409   0.895   2.772   3.700  0.7541  1.2548  0.1947
   22EMI    N00  410   1.023   2.837   3.570  0.6250  0.0993  0.5017
   22EMI    C06  411   1.019   3.031   3.272  0.4077  0.3729  0.7329
   22EMI    H0F  412   1.102   3.012   3.205 -0.2798 -0.2340  0.0402
   22EMI    C0N  413   0.898   2.983   3.195  0.5634 -0.5824 -0.7276
   22EMI    H0O  414   0.810   3.006   3.254  0.0946 -0.4795 -1.4542
   22EMI    H0P  415   0.889   3.038   3.102 -1.0230  1.7701  0.7108
   22EMI    H0Q  416   0.912   2.876   3.184  0.7831 -1.1573  3.5304
   22EMI    N02  417   1.044   2.966   3.403 -0.3827 -0.0520 -0.4526
   22EMI    H0E  418   0.997   3.137   3.284 -1.6840  0.1692 -0.7229
   23EMI    C01  419   1.612   3.791   2.638  0.4634 -0.0328  0.2370
   23EMI    C04  420   1.451   3.937   2.687  0.4512 -0.3373 -0.1288
   23EMI    C03  421   1.538   3.999   2.611  0.2593  0.2841 -0.2201
   23EMI    H07  422   1.682   3.710   2.644 -0.6913 -1.2824 -1.7969
   23EMI    H09  423   1.370   3.976   2.744 -1.2278 -0.4454 -2.3235
   23EMI    H08  424   1.546   4.101   2.580  2.5760  0.2491  0.0890
   23EMI    C05  425   1.770   3.935   2.537 -0.0835  0.2816  0.1462
   23EMI    H0B  426   1.841   3.867   2.582 -0.7157  0.8385  2.0596
   23EMI    H0C  427   1.763   3.922   2.430 -0.2253 -0.5876  0.2540
   23EMI    H0D  428   1.807   4.033   2.562  2.3648 -0.6722  0.5857
   23EMI    N00  429   1.640   3.909   2.585 -0.4831 -0.0235 -0.0681
   23EMI    C06  430   1.417   3.707   2.768  0.2124  0.2710  1.1447
   23EMI    H0F  431   1.471   3.614   2.770  0.5848  0.4951  1.5489
   23EMI    C0N  432   1.373   3.757   2.897  0.6579 -0.8778 -0.3360
   23EMI    H0O  433   1.285   3.821   2.894  0.5849 -0.8771  0.9960
   23EMI    H0P  434   1.346   3.678   2.967  0.9765 -0.4436  0.2919
   23EMI    H0Q  435   1.444   3.828   2.938 -1.6254  1.5130 -0.2427
   23EMI    N02  436   1.491   3.806   2.688  0.1540 -0.1419  0.1222
   23EMI    H0E  437   1.325   3.679   2.718 -1.1162  2.2014  2.3542
   24EMI    C01  438   3.533   0.523   2.639 -0.0117 -0.3075  0.3066
   24EMI    C04  439   3.436   0.505   2.831 -0.0367 -0.2491  0.4881
   24EMI    C03  440   3.518   0.399   2.814  0.0610  0.1654  0.7335
   24EMI    H07  441   3.563   0.560   2.543 -0.7823 -1.4819 -0.4094
   24EMI    H09  442   3.369   0.530   2.911  0.6847  1.0046  0.7162
   24EMI    H08  443   3.542   0.314   2.873 -0.8861 -1.6723 -1.3858
   24EMI    C05  444   3.672   0.316   2.631 -0.4647 -0.2570 -0.0427
   24EMI    H0B  445   3.757   0.311   2.697 -0.1453  0.7211 -0.3724
   24EMI    H0C  446   3.621   0.220   2.627 -0.7769 -0.0474 -1.5706
   24EMI    H0D  447   3.705   0.357   2.537 -0.2328  2.2855  1.0866
   24EMI    N00  448   3.575   0.407   2.689  0.7507  0.0441  0.0437
   24EMI    C06  449   3.403   0.726   2.715  0.0991  0.2361 -0.4972
   24EMI    H0F  450   3.295   0.722   2.719  0.1496 -0.5050  2.2517
   24EMI    C0N  451   3.461   0.794   2.839  0.0311 -0.2436  0.6580
   24EMI    H0O  452   3.413   0.890   2.849 -1.0656 -0.7291  0.1685
   24EMI    H0P  453   3.454   0.738   2.932 -1.9936  0.4940  0.9912
   24EMI    H0Q  454   3.569   0.802   2.839  0.0120  0.1098 -0.3929
   24EMI    N02  455   3.446   0.582   2.718 -0.3012 -0.1209  0.6654
   24EMI    H0E  456   3.438   0.780   2.628  0.2085 -0.5196 -0.9335
   25EMI    C01  457   4.206   4.496   0.015 -0.3495 -0.2936  0.1226
   25EMI    C04  458   4.032   4.617   0.009  0.5287 -0.2201 -0.3087
   25EMI    C03  459   4.117   4.665   0.100  0.4432  0.1722 -0.4272
   25EMI    H07  460   4.268   4.413  -0.011 -2.2311 -1.8271  0.3126
   25EMI    H09  461   3.940   4.653  -0.032 -1.7478 -2.8704  1.9173
   25EMI    H08  462   4.110   4.756   0.154 -0.8337  0.5648 -1.2109
   25EMI    C05  463   4.350   4.618   0.179 -0.0082 -0.0583  0.0556
   25EMI    H0B  464   4.413   4.531   0.189 -0.1645 -0.0636  1.0659
   25EMI    H0C  465   4.410   4.693   0.129 -0.1779 -1.1766 -1.9212
   25EMI    H0D  466   4.319   4.660   0.273 -0.6050  1.2023 -0.6695
   25EMI    N00  467   4.226   4.587   0.108 -0.3201 -0.2207 -0.6950
   25EMI    C06  468   4.037   4.413  -0.140 -0.0126  0.9777  0.2544
   25EMI    H0F  469   4.069   4.437  -0.240 -2.5080 -2.1649 -1.4886
   25EMI    C0N  470   4.053   4.262  -0.110  0.1879 -0.1260 -0.1671
   25EMI    H0O  471   4.113   4.217  -0.188 -0.0527 -1.0485  0.1718
   25EMI    H0P  472   4.095   4.238  -0.013  1.8582  0.8666 -0.6043
   25EMI    H0Q  473   3.956   4.214  -0.117  0.5312 -1.6991  3.5457
   25EMI    N02  474   4.090   4.505  -0.037  0.2199  0.6812 -0.4092
   25EMI    H0E  475   3.931   4.428  -0.150 -0.3980 -1.0848  0.8107
   26EMI    C01  476   1.897   3.450   3.596  0.0192 -0.4485  0.2136
   26EMI    C04  477   1.797   3.259   3.568 -0.0060  0.4776 -0.0029
   26EMI    C03  478   1.726   3.332   3.655  0.6564 -0.4941 -0.0014
   26EMI    H07  479   1.975   3.522   3.604  0.9835 -1.6745  3.6837
   26EMI    H09  480   1.792   3.164   3.521  2.0855  0.8605 -1.1152
   26EMI    H08  481   1.631   3.307   3.697  0.5019  1.4682  0.9319
   26EMI    C05  482   1.757   3.542   3.777 -0.7849 -0.0266 -0.6548
   26EMI    H0B  483   1.780   3.506   3.877 -0.0723  0.6914 -0.5508
   26EMI    H0C  484   1.800   3.641   3.766 -0.0826 -0.2472  0.0520
   26EMI    H0D  485   1.650   3.559   3.779 -1.1404 -1.8317 -2.0842
   26EMI    N00  486   1.797   3.448   3.679 -0.3744 -0.0121 -0.4954
   26EMI    C06  487   2.007   3.317   3.416  0.2192 -0.1558 -0.2315
   26EMI    H0F  488   2.064   3.225   3.424 -0.2791 -0.3203  2.1062
   26EMI    C0N  489   1.945   3.334   3.276 -0.3335  0.2292 -0.2224
   26EMI    H0O  490   1.902   3.434   3.271 -0.3647  0.1607 -2.2967
   26EMI    H0P  491   2.024   3.337   3.201  1.2221 -0.8009  1.3060
   26EMI    H0Q  492   1.871   3.259   3.250  0.7164 -0.8220 -0.2144
   26EMI    N02  493   1.903   3.340   3.528  0.3612 -0.7917  0.1255
   26EMI    H0E  494   2.086   3.388   3.437 -0.0419 -0.1202  0.6823
   27EMI    C01  495   0.936   2.415   2.647 -0.4305  0.3427 -0.1814
   27EMI    C04  496   1.013   2.613   2.669 -1.0300  0.5232 -0.0321
   27EMI    C03  497   0.955   2.581   2.783 -0.2856  0.0282 -0.3502
   27EMI    H07  498   0.915   2.312   2.627  0.4898  0.1202 -0.0410
   27EMI    H09  499   1.085   2.691   2.659  1.2756 -1.4108  0.4979
   27EMI    H08  500   0.970   2.630   2.876  1.7672 -0.4267 -0.3931
   27EMI    C05  501   0.825   2.379   2.866 -0.3320  0.7500 -0.0280
   27EMI    H0B  502   0.780   2.294   2.818  0.1459  0.6315 -0.2712
   27EMI    H0C  503   0.904   2.344   2.932 -0.4481 -3.0180 -1.6900
   27EMI    H0D  504   0.760   2.453   2.911  2.2425  3.5331 -0.5024
   27EMI    N00  505   0.905   2.453   2.769  0.2234 -0.0095 -0.4188
   27EMI    C06  506   1.079   2.493   2.455  0.0288 -0.0624  0.3070
   27EMI    H0F  507   1.019   2.538   2.376 -0.1007 -2.4181 -1.0294
   27EMI    C0N  508   1.227   2.531   2.455  0.5380 -0.0067  0.1043
   27EMI    H0O  509   1.278   2.513   2.361  1.3340  1.2757  0.2716
   27EMI    H0P  510   1.229   2.636   2.482 -0.8560  0.1165 -0.1649
   27EMI    H0Q  511   1.282   2.461   2.516  0.7470 -0.3636 -0.4849
   27EMI    N02  512   1.004   2.511   2.581  0.4817 -0.3081  0.4471
   27EMI    H0E  513   1.072   2.389   2.429  1.9897 -0.1138 -0.1166
   28EMI    C01  514   2.321   1.949   2.719 -0.5553  0.4611 -0.1301
   28EMI    C04  515   2.527   1.987   2.773 -0.3310  0.9119 -0.3031
   28EMI    C03  516   2.527   1.889   2.685 -0.1270  0.9495 -0.0149
   28EMI    H07  517   2.215   1.961   2.713 -0.4635  0.4123 -2.3889
   28EMI    H09  518   2.608   2.036   2.823 -0.0242  0.0406  0.0720
   28EMI    H08  519   2.612   1.833   2.652 -0.7024  0.3648 -0.5574
   28EMI    C05  520   2.354   1.765   2.549 -0.0348 -0.2927  0.2166
   28EMI    H0B  521   2.264   1.808   2.508 -0.0420  0.9743  1.5044
   28EMI    H0C  522   2.437   1.740   2.484 -0.6434  1.8513 -1.4972
   28EMI    H0D  523   2.327   1.680   2.610 -2.3367  0.5541  0.4646
   28EMI    N00  524   2.396   1.863   2.650  0.1165 -0.0796  0.4641
   28EMI    C06  525   2.360   2.127   2.901  0.3742 -0.5818 -0.0739
   28EMI    H0F  526   2.261   2.094   2.928  1.0500 -0.7145  2.4468
   28EMI    C0N  527   2.444   2.128   3.026 -0.0371 -0.2501  0.3295
   28EMI    H0O  528   2.443   2.038   3.087 -2.6241 -0.0518  0.6968
   28EMI    H0P  529   2.547   2.153   3.003  0.8733 -3.9630 -0.3212
   28EMI    H0Q  530   2.411   2.210   3.089 -0.8932 -0.1694 -0.2059
   28EMI    N02  531   2.402   2.027   2.796  0.6697  0.0295 -0.2215
   28EMI    H0E  532   2.357   2.228   2.864  0.8266 -0.3453  0.5130
   29EMI    C01  533   0.625   2.855   0.144  0.3660  0.1024  0.1974
   29EMI    C04  534   0.798   2.990   0.126  0.4493  0.1394 -0.2546
   29EMI    C03  535   0.835   2.876   0.170 -0.1621 -0.4553 -0.3888
   29EMI    H07  536   0.524   2.822   0.135  0.3241  0.1004  0.6556
   29EMI    H09  537   0.861   3.074   0.109  0.1824  0.7713  1.5719
   29EMI    H08  538   0.938   2.856   0.192 -0.1956  1.3378  1.9327
   29EMI    C05  539   0.725   2.644   0.213 -0.0350 -0.4043  0.3946
   29EMI    H0B  540   0.622   2.618   0.196  0.0367  0.7769 -2.3854
   29EMI    H0C  541   0.769   2.589   0.130  3.1558  1.0978  0.9268
   29EMI    H0D  542   0.763   2.614   0.309 -0.4457 -3.2479 -0.2377
   29EMI    N00  543   0.727   2.788   0.183 -0.6658 -0.3896  0.3611
   29EMI    C06  544   0.582   3.077   0.036 -0.7926  0.4560 -0.2694
   29EMI    H0F  545   0.644   3.123  -0.040 -0.1027  1.6135  0.9467
   29EMI    C0N  546   0.484   3.011  -0.057 -0.6707  0.2942 -0.1183
   29EMI    H0O  547   0.399   2.983   0.004  0.5608  0.7954  1.9266
   29EMI    H0P  548   0.454   3.083  -0.132  0.9798  1.1412 -0.0063
   29EMI    H0Q  549   0.520   2.923  -0.108  1.3451  1.2672 -0.5006
   29EMI    N02  550   0.661   2.981   0.117 -0.1486 -0.2780  0.8904
   29EMI    H0E  551   0.539   3.156   0.097  0.4238 -0.0848  1.3383
   30EMI    C01  552   0.320   2.127   2.182 -0.0765  0.2661 -0.1956
   30EMI    C04  553   0.361   1.915   2.226  0.1610 -0.5914 -0.3098
   30EMI    C03  554   0.231   1.944   2.255  0.2706  0.0217  0.4123
   30EMI    H07  555   0.332   2.233   2.167  1.1944 -0.0407 -1.5762
   30EMI    H09  556   0.414   1.823   2.241 -0.1927 -0.8576 -0.6624
   30EMI    H08  557   0.153   1.875   2.277 -0.8055  0.6156 -1.3483
   30EMI    C05  558   0.082   2.150   2.272  0.2880 -0.3735 -0.6172
   30EMI    H0B  559   0.077   2.162   2.379 -0.3736  1.9729 -0.8482
   30EMI    H0C  560   0.091   2.252   2.237  2.1470 -0.1998  0.2739
   30EMI    H0D  561  -0.004   2.106   2.223 -1.7585  2.7781 -0.1151
   30EMI    N00  562   0.206   2.075   2.230  0.4771  0.0725 -0.3355
   30EMI    C06  563   0.546   2.051   2.123  0.0706  0.1737 -0.0018
   30EMI    H0F  564   0.557   2.149   2.079 -1.2339 -0.1965 -1.2037
   30EMI    C0N  565   0.640   2.021   2.235 -0.4047 -0.4096 -0.3671
   30EMI    H0O  566   0.581   2.035   2.325 -0.9567  0.3026 -0.8299
   30EMI    H0P  567   0.683   1.923   2.222 -0.1246 -0.3662  0.1990
   30EMI    H0Q  568   0.714   2.100   2.230  1.1751 -1.9277 -4.6200
   30EMI    N02  569   0.408   2.033   2.169 -0.3310  0.4972  0.3222
   30EMI    H0E  570   0.561   1.986   2.038 -0.7871  2.2918 -1.8928
   31EMI    C01  571   3.822   0.940   2.272 -0.0337  0.0593 -0.0224
   31EMI    C04  572   3.948   1.056   2.144 -0.8914  0.3176  0.2960
   31EMI    C03  573   3.833   1.032   2.081 -0.5186 -0.2118 -0.3598
   31EMI    H07  574   3.773   0.883   2.349 -0.6906 -0.4044 -0.7679
   31EMI    H09  575   4.039   1.101   2.111 -0.4218 -0.1590  0.9198
   31EMI    H08  576   3.807   1.051   1.979 -0.4549 -1.3215 -0.5994
   31EMI    C05  577   3.605   0.952   2.145 -0.1137 -0.2068  0.5391
   31EMI    H0B  578   3.555   0.995   2.231 -0.6573  0.4762 -0.1049
   31EMI    H0C  579   3.556   1.011   2.069 -1.1754  1.7174  2.5933
   31EMI    H0D  580   3.574   0.848   2.138  0.9107 -0.4839 -0.0765
   31EMI    N00  581   3.750   0.967   2.166 -0.5653 -0.1261  0.6364
   31EMI    C06  582   4.035   1.002   2.382 -0.2784  0.2814 -0.9401
   31EMI    H0F  583   3.979   1.008   2.474 -1.2799 -1.7675 -1.3646
   31EMI    C0N  584   4.135   0.884   2.382 -0.0864 -0.5668 -0.1046
   31EMI    H0O  585   4.172   0.865   2.482 -2.1050  0.1183  0.8377
   31EMI    H0P  586   4.103   0.788   2.342  0.0711 -0.9670  0.7113
   31EMI    H0Q  587   4.224   0.904   2.324 -1.1827  0.5020 -1.4979
   31EMI    N02  588   3.933   1.001   2.269 -0.3202  0.2276 -0.2935
   31EMI    H0E  589   4.082   1.099   2.383 -0.2937  0.2837 -0.5821
   32EMI    C01  590   0.991   2.981   4.155 -1.3226 -0.3456 -0.2542
   32EMI    C04  591   1.122   3.117   4.274 -0.7992  0.2154 -0.0447
   32EMI    C03  592   1.069   3.023   4.354  0.0956  0.2831 -0.2937
   32EMI    H07  593   0.936   2.936   4.075  0.3444 -2.0533 -0.5127
   32EMI    H09  594   1.188   3.201   4.283 -0.4326 -0.2090  1.5137
   32EMI    H08  595   1.096   3.011   4.456 -1.4566 -0.4311  0.0554
   32EMI    C05  596   0.942   2.802   4.316  0.0603 -0.0258 -0.0017
   32EMI    H0B  597   0.840   2.818   4.286 -0.9410 -0.8735  2.7012
   32EMI    H0C  598   0.988   2.724   4.258  0.2989 -0.9807  1.4073
   32EMI    H0D  599   0.954   2.786   4.422 -0.4446  1.3136  0.2904
   32EMI    N00  600   1.001   2.934   4.278  0.3111  0.4646  0.5204
   32EMI    C06  601   1.102   3.160   4.018  0.0467 -0.1037 -0.2752
   32EMI    H0F  602   1.025   3.134   3.948 -1.8866  1.3931  1.1809
   32EMI    C0N  603   1.091   3.307   4.043  0.3579  0.4405  0.0195
   32EMI    H0O  604   1.180   3.351   4.086  1.1763 -0.8605 -0.2901
   32EMI    H0P  605   1.084   3.356   3.947  0.2056  0.1878 -0.0992
   32EMI    H0Q  606   1.001   3.343   4.093 -0.5463  1.1215 -1.9953
   32EMI    N02  607   1.071   3.089   4.146 -0.1866  0.1028 -0.6175
   32EMI    H0E  608   1.200   3.133   3.983 -0.3012  0.3561 -1.6513
   33EMI    C01  609   4.962   3.092   3.235 -0.6029 -0.4242 -0.7101
   33EMI    C04  610   4.884   3.044   3.037  0.4184  0.0421  0.1108
   33EMI    C03  611   4.823   2.964   3.124 -1.2034  0.5553  0.5161
   33EMI    H07  612   5.025   3.133   3.311 -0.4136 -1.0608 -0.5150
   33EMI    H09  613   4.876   3.053   2.931  3.3205  0.2399 -0.1752
   33EMI    H08  614   4.738   2.907   3.092 -0.3837  0.0840 -0.8982
   33EMI    C05  615   4.835   2.912   3.370  0.2362 -0.5572  0.4358
   33EMI    H0B  616   4.897   2.935   3.455 -0.0239 -0.0499  0.4909
   33EMI    H0C  617   4.741   2.953   3.404  0.2252 -0.6463  0.5159
   33EMI    H0D  618   4.825   2.806   3.348  2.1609 -0.8064  0.6359
   33EMI    N00  619   4.876   2.990   3.248  0.2164 -0.2369 -1.1864
   33EMI    C06  620   5.026   3.250   3.054  0.6465 -0.0627 -0.3651
   33EMI    H0F  621   5.124   3.218   3.021  0.0313 -1.0643 -1.2690
   33EMI    C0N  622   4.956   3.320   2.938 -0.0366  0.4148  0.3456
   33EMI    H0O  623   4.852   3.292   2.934 -0.5808  1.9939  1.9764
   33EMI    H0P  624   4.960   3.427   2.957 -1.1688  0.6548 -0.6677
   33EMI    H0Q  625   5.006   3.306   2.843 -1.0911  1.3621 -0.3696
   33EMI    N02  626   4.965   3.131   3.108  0.1665  0.3255  0.3364
   33EMI    H0E  627   5.019   3.329   3.127 -2.3629 -1.1149  0.6342
   34EMI    C01  628   3.935   3.155   0.847  0.1648 -0.0494 -0.8973
   34EMI    C04  629   4.034   3.243   0.676 -0.3957  0.6227 -0.1074
   34EMI    C03  630   4.127   3.188   0.750 -0.1115 -0.9028 -0.0187
   34EMI    H07  631   3.861   3.116   0.913 -0.9748  0.2568 -1.9637
   34EMI    H09  632   4.051   3.307   0.592  0.9546  0.2794 -0.1204
   34EMI    H08  633   4.233   3.179   0.743 -0.3898 -3.6919 -2.1263
   34EMI    C05  634   4.127   3.092   0.981  0.1581 -0.1333  0.7831
   34EMI    H0B  635   4.105   3.154   1.067 -0.2370  2.5437 -1.1132
   34EMI    H0C  636   4.087   2.993   0.997  0.9535 -0.6655 -0.4205
   34EMI    H0D  637   4.229   3.083   0.948  0.0589 -1.5033  0.7931
   34EMI    N00  638   4.065   3.140   0.863  0.1736  0.6520  0.6566
   34EMI    C06  639   3.784   3.276   0.688 -0.2176 -0.1690 -0.0578
   34EMI    H0F  640   3.714   3.194   0.701 -0.6184  0.0322 -0.8853
   34EMI    C0N  641   3.733   3.408   0.762 -0.7665 -0.0900  0.1412
   34EMI    H0O  642   3.660   3.450   0.693 -0.0246  0.4351 -0.3463
   34EMI    H0P  643   3.676   3.387   0.851 -1.8555 -0.2629 -0.5775
   34EMI    H0Q  644   3.810   3.484   0.775  0.1407 -0.5887 -1.8817
   34EMI    N02  645   3.914   3.225   0.738  0.1995 -0.3290  0.6526
   34EMI    H0E  646   3.787   3.304   0.584  0.5104  0.0268  0.0116
   35EMI    C01  647   4.581   1.905   4.547  0.1345 -0.1185  0.3349
   35EMI    C04  648   4.536   2.111   4.569 -0.5267 -0.9307 -0.2863
   35EMI    C03  649   4.464   2.046   4.658  0.1398 -0.6570 -0.3558
   35EMI    H07  650   4.625   1.819   4.499  2.2916  1.0957 -0.0074
   35EMI    H09  651   4.541   2.217   4.562 -2.2164 -0.8205 -0.4262
   35EMI    H08  652   4.400   2.089   4.732 -0.0317  0.0903 -0.9184
   35EMI    C05  653   4.421   1.801   4.704 -0.0426 -0.1565  0.4969
   35EMI    H0B  654   4.368   1.742   4.631  2.3495  1.2834 -2.6814
   35EMI    H0C  655   4.484   1.735   4.761 -1.2269 -1.1939  0.6579
   35EMI    H0D  656   4.338   1.835   4.765 -2.3926  0.4584 -2.7572
   35EMI    N00  657   4.491   1.913   4.638 -0.1808 -0.3985 -0.2611
   35EMI    C06  658   4.693   2.045   4.385  0.3328  0.3414  0.4376
   35EMI    H0F  659   4.705   1.957   4.323 -0.2333  0.3028  0.3801
   35EMI    C0N  660   4.666   2.164   4.296 -0.1626  0.2155  0.3039
   35EMI    H0O  661   4.729   2.145   4.209  0.7505 -0.0873  1.0081
   35EMI    H0P  662   4.562   2.175   4.271  0.5610  2.0009 -2.3168
   35EMI    H0Q  663   4.685   2.262   4.338 -3.9370  1.5350 -0.7313
   35EMI    N02  664   4.611   2.021   4.502 -0.6125 -0.4112  0.0271
   35EMI    H0E  665   4.793   2.066   4.423  2.0053 -4.1553 -0.7606
   36EMI    C01  666   3.403   3.181   3.105 -0.2405  0.4681 -0.0872
   36EMI    C04  667   3.396   3.364   3.209 -0.5012 -0.6651  0.2227
   36EMI    C03  668   3.274   3.339   3.171 -0.0878  0.6936  0.4872
   36EMI    H07  669   3.441   3.094   3.058  1.2846  0.6074  0.8353
   36EMI    H09  670   3.420   3.445   3.274 -2.3620  0.6500 -0.6372
   36EMI    H08  671   3.186   3.395   3.188  0.2370  1.2674  0.2936
   36EMI    C05  672   3.167   3.135   3.055  0.1944 -0.1364 -0.3534
   36EMI    H0B  673   3.082   3.141   3.122  0.7198 -0.6129  0.3684
   36EMI    H0C  674   3.142   3.179   2.959 -0.4779  3.0316  1.1406
   36EMI    H0D  675   3.196   3.032   3.038  0.5331  0.2542 -2.3161
   36EMI    N00  676   3.278   3.213   3.113  0.1070 -0.3741 -0.1712
   36EMI    C06  677   3.630   3.240   3.191 -0.1344  0.6836 -0.2542
   36EMI    H0F  678   3.650   3.177   3.276  3.1069 -1.1277 -2.1701
   36EMI    C0N  679   3.706   3.183   3.063  0.6070 -0.5204 -0.2314
   36EMI    H0O  680   3.676   3.081   3.040 -0.1250  0.0423 -1.9527
   36EMI    H0P  681   3.683   3.239   2.973 -2.0877 -1.6571 -0.3379
   36EMI    H0Q  682   3.814   3.184   3.071  0.5505  1.0115  0.6344
   36EMI    N02  683   3.482   3.263   3.170 -0.3901  0.1800  0.3579
   36EMI    H0E  684   3.660   3.343   3.202  2.8404 -0.2194  0.9642
   37EMI    C01  685   0.825   2.316   3.485 -0.8095  0.1303 -0.2049
   37EMI    C04  686   0.743   2.174   3.626  0.0419  0.1784 -0.0877
   37EMI    C03  687   0.815   2.104   3.542 -0.2853 -0.1193  0.6306
   37EMI    H07  688   0.845   2.401   3.423  1.0006 -0.2710 -0.2404
   37EMI    H09  689   0.688   2.133   3.708  3.9337 -3.3074  1.1931
   37EMI    H08  690   0.834   1.999   3.539 -1.6180 -0.3640  0.1066
   37EMI    C05  691   0.983   2.180   3.355  0.5338 -0.2476 -0.2537
   37EMI    H0B  692   1.068   2.184   3.421 -1.7385 -3.6512  3.2630
   37EMI    H0C  693   0.978   2.077   3.323  0.5470 -0.5655  0.7290
   37EMI    H0D  694   0.976   2.257   3.279  0.8917 -0.2216 -0.2616
   37EMI    N00  695   0.872   2.195   3.453  0.2232 -0.1988  0.3659
   37EMI    C06  696   0.693   2.418   3.670 -0.0188 -0.6353  0.4893
   37EMI    H0F  697   0.586   2.423   3.658 -0.0060 -0.3787  0.4840
   37EMI    C0N  698   0.736   2.424   3.815  0.6294  0.5794  0.1786
   37EMI    H0O  699   0.694   2.343   3.873  2.0051  1.4797  2.5666
   37EMI    H0P  700   0.841   2.396   3.820  0.5653  0.3699  0.3977
   37EMI    H0Q  701   0.716   2.517   3.867  0.1060  0.1167  0.8145
   37EMI    N02  702   0.750   2.308   3.591  0.5687 -0.4767  0.1314
   37EMI    H0E  703   0.722   2.514   3.630 -0.5910 -0.1181  1.2772
   38EMI    C01  704   0.859   2.414   4.938  0.2111 -0.8011  0.0918
   38EMI    C04  705   0.990   2.418   4.766  0.4514  0.3986  0.2303
   38EMI    C03  706   0.886   2.333   4.738  0.2414 -0.1435 -0.1134
   38EMI    H07  707   0.834   2.425   5.041  0.1468 -0.7982  0.0756
   38EMI    H09  708   1.063   2.441   4.691 -1.3412 -0.3045 -1.8358
   38EMI    H08  709   0.870   2.275   4.650  0.2766  0.7733 -0.7374
   38EMI    C05  710   0.680   2.254   4.872  0.6761 -0.0783  0.4485
   38EMI    H0B  711   0.689   2.182   4.951  2.0860  1.5020  1.7995
   38EMI    H0C  712   0.589   2.311   4.881  1.0953  0.7050 -0.1172
   38EMI    H0D  713   0.662   2.204   4.778 -1.2001  1.4607 -0.0736
   38EMI    N00  714   0.804   2.331   4.852 -0.3064 -0.6273 -0.3788
   38EMI    C06  715   1.062   2.561   4.960 -0.4687  0.2872  0.2751
   38EMI    H0F  716   1.035   2.666   4.956 -1.6851 -0.0387 -0.4940
   38EMI    C0N  717   1.079   2.534   5.108 -0.3096  0.6428  0.5731
   38EMI    H0O  718   1.090   2.427   5.124  2.3720  0.2421 -2.8421
   38EMI    H0P  719   1.167   2.585   5.145 -0.0647  2.1037 -1.7687
   38EMI    H0Q  720   0.995   2.571   5.166 -0.4159  1.5612 -0.1269
   38EMI    N02  721   0.968   2.465   4.887 -0.2687  0.5726 -0.1157
   38EMI    H0E  722   1.158   2.542   4.914 -1.2370 -2.4659 -0.3902
   39EMI    C01  723   3.761   1.970   0.398  0.2355 -0.4994 -0.1578
   39EMI    C04  724   3.701   2.158   0.313 -0.1289 -0.0799 -0.3022
   39EMI    C03  725   3.607   2.068   0.282  0.3827 -0.5551  0.8354
   39EMI    H07  726   3.814   1.897   0.455  1.3379 -1.0581 -1.8134
   39EMI    H09  727   3.719   2.259   0.285  1.7514  0.0997  1.2871
   39EMI    H08  728   3.529   2.082   0.210  2.8008 -0.8320 -2.0192
   39EMI    C05  729   3.561   1.824   0.313 -0.4764 -0.7107  0.1552
   39EMI    H0B  730   3.624   1.738   0.299  3.1944  1.9904 -1.4134
   39EMI    H0C  731   3.496   1.826   0.399  2.8083  0.9067  2.8403
   39EMI    H0D  732   3.509   1.839   0.219  0.6642 -0.6073 -0.4746
   39EMI    N00  733   3.647   1.947   0.327  0.4679  0.1523  0.3666
   39EMI    C06  734   3.921   2.160   0.435 -0.0132 -0.3550 -0.4906
   39EMI    H0F  735   3.938   2.242   0.368  2.0756 -0.4281 -0.1216
   39EMI    C0N  736   3.929   2.218   0.578  0.0840 -0.4743 -0.3150
   39EMI    H0O  737   4.026   2.210   0.624 -0.7586  0.5374  1.7537
   39EMI    H0P  738   3.903   2.323   0.581 -2.6801 -1.0985  0.8913
   39EMI    H0Q  739   3.854   2.178   0.645  0.4043 -0.9132 -0.2136
   39EMI    N02  740   3.792   2.098   0.393  0.0483 -0.1559 -0.4398
   39EMI    H0E  741   3.996   2.087   0.410  0.5478 -0.0267  0.2034
   40EMI    C01  742   1.375   2.712   3.362 -0.0734  0.1233 -0.0617
   40EMI    C04  743   1.289   2.541   3.469  0.1838 -0.4295 -0.0096
   40EMI    C03  744   1.227   2.558   3.353 -0.0851  0.3708 -0.3637
   40EMI    H07  745   1.434   2.799   3.343 -0.2744  0.0212 -1.2000
   40EMI    H09  746   1.280   2.470   3.548 -0.1038  0.0220  0.3682
   40EMI    H08  747   1.149   2.498   3.311 -0.3358  0.6428 -0.2894
   40EMI    C05  748   1.216   2.745   3.181 -0.0386  0.4041  0.6575
   40EMI    H0B  749   1.260   2.843   3.189 -0.5812  0.8107 -1.0763
   40EMI    H0C  750   1.256   2.712   3.086 -3.0460  1.1895 -1.0199
   40EMI    H0D  751   1.108   2.747   3.183 -0.1067  0.1102 -1.0920
   40EMI    N00  752   1.272   2.671   3.292 -0.5023  0.7289 -0.5625
   40EMI    C06  753   1.481   2.664   3.582 -0.3815  0.5178 -0.2154
   40EMI    H0F  754   1.505   2.769   3.589  0.8303  0.2265  0.0809
   40EMI    C0N  755   1.424   2.651   3.719 -0.2397  0.1554  0.1319
   40EMI    H0O  756   1.363   2.564   3.741  0.0519 -0.9508 -2.8794
   40EMI    H0P  757   1.506   2.644   3.789 -0.5447  0.8442  0.5623
   40EMI    H0Q  758   1.363   2.739   3.737  0.7550  1.2695 -1.5693
   40EMI    N02  759   1.385   2.641   3.471  0.5738  0.0480  0.2798
   40EMI    H0E  760   1.568   2.602   3.570  1.5992  3.3147 -1.2148
   41EMI    C01  761   4.534   3.103   0.391 -0.2713  0.5805  0.4976
   41EMI    C04  762   4.590   3.302   0.319  0.4788 -0.1338  0.4286
   41EMI    C03  763   4.661   3.218   0.247  0.1832  0.4786 -0.6760
   41EMI    H07  764   4.478   3.024   0.436  1.6711  0.2429  2.5409
   41EMI    H09  765   4.587   3.409   0.309  0.9912 -0.2202 -0.7376
   41EMI    H08  766   4.731   3.232   0.167  2.2880 -0.8330  0.8205
   41EMI    C05  767   4.663   2.964   0.219  0.9129  0.1454 -0.2953
   41EMI    H0B  768   4.759   2.982   0.172  3.6715 -0.0185  4.5715
   41EMI    H0C  769   4.658   2.885   0.293 -4.2633  2.2006  2.0399
   41EMI    H0D  770   4.572   2.949   0.163  0.2437 -1.3790  1.1251
   41EMI    N00  771   4.628   3.088   0.292  0.1856 -0.0124 -0.5706
   41EMI    C06  772   4.436   3.294   0.523  0.5130  0.0596  0.7583
   41EMI    H0F  773   4.504   3.312   0.605  2.1276 -0.5252 -0.3717
   41EMI    C0N  774   4.362   3.413   0.480 -0.3262 -0.2776 -0.4492
   41EMI    H0O  775   4.306   3.454   0.564  1.5112  1.0496  0.1800
   41EMI    H0P  776   4.438   3.486   0.458  1.5518 -2.1890 -0.6005
   41EMI    H0Q  777   4.296   3.395   0.396 -1.0589 -2.5302  0.5165
   41EMI    N02  778   4.521   3.231   0.414  0.0822  0.2877  0.3821
   41EMI    H0E  779   4.363   3.217   0.539  0.5814 -0.4615 -1.1404
   42EMI    C01  780   4.955   2.023   3.606  0.9128  0.2709  0.8727
   42EMI    C04  781   4.950   2.217   3.526  0.0245 -0.7531  0.0750
   42EMI    C03  782   5.047   2.212   3.619  0.5817 -0.5078 -0.4594
   42EMI    H07  783   4.926   1.921   3.620 -0.9564  0.8466  1.5685
   42EMI    H09  784   4.919   2.296   3.461  1.8114 -0.5301 -0.5712
   42EMI    H08  785   5.111   2.287   3.658 -0.0576 -1.1081  1.8940
   42EMI    C05  786   5.129   2.035   3.785  0.7518  0.1895 -0.1098
   42EMI    H0B  787   5.235   2.031   3.769  0.8479 -1.0802  0.6968
   42EMI    H0C  788   5.108   2.093   3.874  0.4728  1.3945 -0.9384
   42EMI    H0D  789   5.096   1.934   3.804 -2.6049  1.4508  1.6779
   42EMI    N00  790   5.046   2.087   3.671 -0.0582 -1.1029 -0.4742
   42EMI    C06  791   4.785   2.046   3.425  0.1620 -0.1108 -0.2410
   42EMI    H0F  792   4.784   1.939   3.435 -0.6740 -0.0496  0.5419
   42EMI    C0N  793   4.645   2.099   3.469 -0.0245  0.3983  0.1077
   42EMI    H0O  794   4.634   2.206   3.470 -1.6660  0.2582  1.4607
   42EMI    H0P  795   4.558   2.066   3.413  0.0692  0.5998 -0.1589
   42EMI    H0Q  796   4.642   2.057   3.569 -2.3603  0.1853  0.0008
   42EMI    N02  797   4.895   2.094   3.518  0.0871 -0.7810  0.8251
   42EMI    H0E  798   4.800   2.054   3.319 -2.1475 -2.2600 -0.8164
   43EMI    C01  799   1.322   4.851   2.651  0.2622 -0.0171  0.5083
   43EMI    C04  800   1.186   4.963   2.527  0.5631 -0.0355  0.8269
   43EMI    C03  801   1.171   4.837   2.493  0.1628 -0.3207  0.6381
   43EMI    H07  802   1.405   4.830   2.715  0.0291  0.0973  0.8584
   43EMI    H09  803   1.128   5.040   2.483  1.5573 -1.2980 -3.1076
   43EMI    H08  804   1.102   4.792   2.425 -0.5987 -2.3484  2.6437
   43EMI    C05  805   1.263   4.624   2.548  0.2277 -0.4097  0.2980
   43EMI    H0B  806   1.229   4.574   2.638  2.0344 -0.1208  1.2068
   43EMI    H0C  807   1.194   4.600   2.468  1.0553  0.5036 -0.7245
   43EMI    H0D  808   1.357   4.582   2.516  1.0577  2.6733 -1.7741
   43EMI    N00  809   1.253   4.768   2.569 -0.2350 -0.0925 -0.2966
   43EMI    C06  810   1.300   5.089   2.708 -0.0819 -0.2681  0.1916
   43EMI    H0F  811   1.321   5.162   2.631  0.1400 -1.6656 -1.1119
   43EMI    C0N  812   1.181   5.125   2.792  0.3934 -0.4195 -0.4845
   43EMI    H0O  813   1.099   5.150   2.725  0.9292 -0.8106 -1.3001
   43EMI    H0P  814   1.153   5.038   2.850  0.7824  1.1771  2.2228
   43EMI    H0Q  815   1.207   5.207   2.857  1.0611 -0.8107 -0.2513
   43EMI    N02  816   1.265   4.970   2.637 -0.7902  0.1306  0.1187
   43EMI    H0E  817   1.391   5.087   2.765  0.8195  1.0466 -1.1284
   44EMI    C01  818   0.833   2.997   2.634  0.4952  0.2074  0.6902
   44EMI    C04  819   0.701   3.171   2.635  0.3817 -0.0433  0.0725
   44EMI    C03  820   0.624   3.064   2.642  0.0633  0.1162 -0.1424
   44EMI    H07  821   0.922   2.938   2.635 -0.7881 -2.0624 -2.2163
   44EMI    H09  822   0.677   3.273   2.616 -0.4628 -0.0984  0.7682
   44EMI    H08  823   0.517   3.064   2.648  0.1279 -0.0636  1.5939
   44EMI    C05  824   0.674   2.821   2.700  0.5311 -0.1050  0.5819
   44EMI    H0B  825   0.712   2.802   2.799  1.5406  1.5921  0.5547
   44EMI    H0C  826   0.567   2.808   2.708  0.5330 -0.3179  0.2948
   44EMI    H0D  827   0.706   2.739   2.637 -1.2088 -0.5623  0.2338
   44EMI    N00  828   0.710   2.955   2.656  0.0811 -0.1208 -0.0028
   44EMI    C06  829   0.943   3.217   2.611 -0.3882  0.3637  0.2807
   44EMI    H0F  830   1.027   3.149   2.603  0.2539  1.2173 -0.4131
   44EMI    C0N  831   0.927   3.289   2.476  0.1911  0.0133 -0.8450
   44EMI    H0O  832   1.027   3.319   2.449 -0.6799  1.5387 -2.5574
   44EMI    H0P  833   0.884   3.239   2.390  1.2310 -2.7083  0.1046
   44EMI    H0Q  834   0.869   3.376   2.505 -3.1286 -2.1892 -0.2990
   44EMI    N02  835   0.829   3.128   2.628 -0.2924 -0.0086  0.0386
   44EMI    H0E  836   0.953   3.279   2.699 -0.8345  1.1309 -0.2038
   45EMI    C01  837   3.704   4.960   0.315 -0.1462 -0.2611 -0.5898
   45EMI    C04  838   3.765   4.975   0.102 -0.2218  0.7534 -0.0876
   45EMI    C03  839   3.867   5.019   0.178  0.2904 -0.4776  0.7770
   45EMI    H07  840   3.644   4.962   0.404 -0.6839 -0.4039 -0.9495
   45EMI    H09  841   3.753   4.977  -0.004  0.7365 -0.8182 -0.2585
   45EMI    H08  842   3.959   5.061   0.142 -0.1223  0.1813  0.4733
   45EMI    C05  843   3.893   5.065   0.434 -0.9414  0.4555 -0.1715
   45EMI    H0B  844   3.835   5.029   0.517 -0.8614  1.9749  0.5847
   45EMI    H0C  845   3.995   5.030   0.447 -1.3043 -0.0396  1.5058
   45EMI    H0D  846   3.888   5.173   0.431 -0.3233  0.4829 -3.0212
   45EMI    N00  847   3.827   5.011   0.314 -0.4141  0.4766  0.1414
   45EMI    C06  848   3.530   4.885   0.160  0.4853 -1.1110 -0.5092
   45EMI    H0F  849   3.488   4.921   0.067 -1.2854 -0.1532  0.5917
   45EMI    C0N  850   3.505   4.740   0.173  0.8504  0.5201 -0.4717
   45EMI    H0O  851   3.505   4.702   0.274  1.4202  1.6824 -0.0233
   45EMI    H0P  852   3.410   4.705   0.133 -0.8058  1.1919  2.6304
   45EMI    H0Q  853   3.588   4.683   0.132  1.2957  0.5764  0.3353
   45EMI    N02  854   3.664   4.934   0.190 -0.1965 -0.4535  0.0287
   45EMI    H0E  855   3.459   4.933   0.226  0.2295 -2.2776  0.0926
   46EMI    C01  856   0.532   0.747   2.903  0.4073  0.2758  0.0689
   46EMI    C04  857   0.650   0.781   2.727  0.2546 -0.0775 -0.3781
   46EMI    C03  858   0.529   0.826   2.696 -0.2845  0.3471  0.3309
   46EMI    H07  859   0.491   0.722   2.998  2.2710 -0.8941  0.6230
   46EMI    H09  860   0.736   0.785   2.663  0.3742  1.5605 -0.1640
   46EMI    H08  861   0.491   0.876   2.610 -1.0773 -2.0312 -0.8145
   46EMI    C05  862   0.311   0.797   2.812 -0.5254 -0.0109 -1.0656
   46EMI    H0B  863   0.280   0.803   2.916 -0.8136  0.0780 -1.1574
   46EMI    H0C  864   0.274   0.880   2.754 -2.2428 -2.3116 -3.5106
   46EMI    H0D  865   0.267   0.707   2.770 -2.5287  1.2835 -1.8641
   46EMI    N00  866   0.452   0.792   2.807 -0.2037 -0.1192 -0.2133
   46EMI    C06  867   0.775   0.687   2.928  0.1347 -0.3092 -0.4500
   46EMI    H0F  868   0.807   0.599   2.874  0.4186 -1.3922  1.4357
   46EMI    C0N  869   0.873   0.798   2.961 -0.3502  0.5463 -0.1702
   46EMI    H0O  870   0.829   0.861   3.038  1.8344  0.1121  1.5641
   46EMI    H0P  871   0.959   0.757   3.013  0.1905 -1.2493 -2.3200
   46EMI    H0Q  872   0.906   0.852   2.874 -0.9220 -0.7683 -1.2442
   46EMI    N02  873   0.654   0.739   2.856  0.2026 -0.2085 -0.1504
   46EMI    H0E  874   0.749   0.643   3.023  1.1064  3.1126  1.5786
   47EMI    C01  875   1.441   0.603   4.647 -0.2814  0.1824 -0.0534
   47EMI    C04  876   1.561   0.770   4.697  0.3080  0.3326  0.0506
   47EMI    C03  877   1.621   0.707   4.599  0.3535  0.3204  0.1771
   47EMI    H07  878   1.371   0.522   4.646  0.1252 -0.2006  1.2420
   47EMI    H09  879   1.575   0.862   4.750  1.9436 -0.8231  1.7490
   47EMI    H08  880   1.715   0.735   4.556  0.6427  0.0355  0.6158
   47EMI    C05  881   1.582   0.489   4.470 -0.2859 -0.0117 -0.2683
   47EMI    H0B  882   1.672   0.431   4.484 -1.2956 -1.5345  0.0993
   47EMI    H0C  883   1.502   0.417   4.478  1.0397 -1.4982  0.0061
   47EMI    H0D  884   1.570   0.538   4.374 -2.4226 -0.0201 -0.0545
   47EMI    N00  885   1.548   0.590   4.570 -0.6569 -0.3336  0.2078
   47EMI    C06  886   1.354   0.741   4.836 -0.8607 -0.3899 -0.0345
   47EMI    H0F  887   1.356   0.849   4.828  1.9502 -0.2602  1.1858
   47EMI    C0N  888   1.207   0.695   4.822  0.2808 -0.3294 -0.0784
   47EMI    H0O  889   1.137   0.753   4.882 -1.3590  0.4354 -2.5508
   47EMI    H0P  890   1.173   0.703   4.719 -2.4843  0.2203  0.7757
   47EMI    H0Q  891   1.191   0.592   4.850 -1.7092 -0.2761 -0.8066
   47EMI    N02  892   1.454   0.699   4.732  0.4378 -0.1754 -0.1301
   47EMI    H0E  893   1.394   0.724   4.935  0.7320  0.3859 -0.5148
   48EMI    C01  894   2.985   1.353   4.679 -1.0955 -0.3362  0.3108
   48EMI    C04  895   2.798   1.262   4.662 -0.2903  0.3089 -0.0656
   48EMI    C03  896   2.880   1.175   4.727  0.3209 -0.3329 -0.2635
   48EMI    H07  897   3.055   1.433   4.684 -0.1907 -1.1022  0.2100
   48EMI    H09  898   2.701   1.240   4.623 -0.7453  1.3589  0.4509
   48EMI    H08  899   2.859   1.075   4.759 -2.4827  0.4188  0.5376
   48EMI    C05  900   3.112   1.172   4.802  0.4450 -0.1627  0.2735
   48EMI    H0B  901   3.201   1.228   4.777  0.5515 -0.0528  0.8886
   48EMI    H0C  902   3.103   1.164   4.909  0.2998 -0.1710  0.2596
   48EMI    H0D  903   3.127   1.074   4.758  0.6477  0.0978 -0.2533
   48EMI    N00  904   2.998   1.237   4.739  0.0870 -0.6914 -0.5199
   48EMI    C06  905   2.822   1.488   4.560  0.3023 -0.0883  0.0754
   48EMI    H0F  906   2.766   1.559   4.618 -0.1867 -0.2743 -0.1669
   48EMI    C0N  907   2.933   1.556   4.471  0.1416  0.3790 -0.1030
   48EMI    H0O  908   2.989   1.476   4.423  1.5489  2.3789 -1.9483
   48EMI    H0P  909   2.891   1.628   4.402  1.8714  2.3535  0.8061
   48EMI    H0Q  910   2.994   1.623   4.529 -0.8001  2.5309 -1.4516
   48EMI    N02  911   2.865   1.376   4.649 -0.4441  0.1629 -0.3704
   48EMI    H0E  912   2.749   1.439   4.497 -0.6589  0.9592  0.3522
   49EMI    C01  913   2.097   0.581   3.995  0.0729 -0.8862 -0.4399
   49EMI    C04  914   1.986   0.606   3.814 -0.5623 -0.5973  0.5659
   49EMI    C03  915   2.060   0.720   3.827 -0.5624  0.2599  0.1104
   49EMI    H07  916   2.133   0.543   4.089 -0.1067  1.2625  0.5582
   49EMI    H09  917   1.919   0.575   3.736  0.9350 -1.3337 -0.4748
   49EMI    H08  918   2.066   0.804   3.762  0.2115  0.3189  0.2534
   49EMI    C05  919   2.238   0.794   3.983 -0.6875 -0.9605  0.2695
   49EMI    H0B  920   2.312   0.733   4.034 -0.0038 -1.1040 -0.8691
   49EMI    H0C  921   2.282   0.838   3.895 -1.0092 -0.5132  0.3271
   49EMI    H0D  922   2.206   0.874   4.049  2.0776 -0.2918  0.9388
   49EMI    N00  923   2.138   0.699   3.944  0.9269 -0.3060  0.1352
   49EMI    C06  924   1.910   0.413   3.952 -0.3281  0.3421  0.1327
   49EMI    H0F  925   1.932   0.340   3.876 -0.8184  1.7275 -1.4052
   49EMI    C0N  926   1.944   0.328   4.075 -0.3996 -0.2511 -0.1991
   49EMI    H0O  927   2.044   0.290   4.090 -0.5137 -1.0951 -1.3915
   49EMI    H0P  928   1.923   0.386   4.164  2.6554  0.9209 -0.1268
   49EMI    H0Q  929   1.878   0.242   4.079  1.6651 -1.8572  1.4174
   49EMI    N02  930   1.998   0.531   3.928  0.5129 -0.2665 -0.5073
   49EMI    H0E  931   1.804   0.435   3.948 -0.2614  0.5003 -1.1505
   50EMI    C01  932   1.828   0.268   0.259  0.8283  0.1840 -0.0124
   50EMI    C04  933   1.720   0.442   0.322  0.4770 -0.4846 -0.9721
   50EMI    C03  934   1.630   0.354   0.278  0.2626 -1.2684  0.1122
   50EMI    H07  935   1.916   0.209   0.245  0.5823  0.1518 -1.6021
   50EMI    H09  936   1.696   0.536   0.367  0.8601 -0.6046 -0.5055
   50EMI    H08  937   1.524   0.362   0.274  0.4261  1.6895 -0.4243
   50EMI    C05  938   1.641   0.123   0.172  0.2540  0.6534  0.1707
   50EMI    H0B  939   1.577   0.160   0.093 -1.9907 -3.9940 -0.5783
   50EMI    H0C  940   1.722   0.059   0.140 -0.2056  0.3532 -0.4024
   50EMI    H0D  941   1.568   0.065   0.227  0.0999 -1.3423 -1.9986
   50EMI    N00  942   1.699   0.242   0.240  0.0989  0.1412 -0.1274
   50EMI    C06  943   1.963   0.450   0.375  0.2689  0.1134 -0.3071
   50EMI    H0F  944   2.023   0.367   0.409 -0.7563 -0.9509 -1.0065
   50EMI    C0N  945   2.030   0.548   0.285  0.1082 -0.6051  0.1088
   50EMI    H0O  946   2.028   0.521   0.181 -0.1061 -1.4919  0.3396
   50EMI    H0P  947   1.994   0.649   0.300  0.9012 -0.4539  1.1831
   50EMI    H0Q  948   2.134   0.566   0.314  0.0563 -3.0615  2.2044
   50EMI    N02  949   1.842   0.384   0.322 -0.3912  0.2336  0.0919
   50EMI    H0E  950   1.935   0.493   0.470 -0.2965 -2.4738  0.7692
   51EMI    C01  951   2.006   2.435   2.778 -0.3330 -0.9272 -0.1680
   51EMI    C04  952   1.955   2.342   2.971 -0.2702  0.8667  0.0977
   51EMI    C03  953   2.078   2.393   2.980 -0.4043  0.1417 -0.0623
   51EMI    H07  954   1.990   2.466   2.677  0.6944  1.2617  0.2728
   51EMI    H09  955   1.898   2.292   3.045  1.6968 -0.1381  0.9941
   51EMI    H08  956   2.152   2.382   3.056  1.3437 -0.2109 -1.7391
   51EMI    C05  957   2.240   2.513   2.825 -0.4179 -0.3490 -0.2389
   51EMI    H0B  958   2.276   2.564   2.912 -0.3624  1.2742 -1.1732
   51EMI    H0C  959   2.315   2.439   2.801 -0.0919 -0.7583  1.8817
   51EMI    H0D  960   2.230   2.586   2.746  0.4169 -1.8334 -1.7907
   51EMI    N00  961   2.111   2.454   2.856  0.0359  0.2088  0.1069
   51EMI    C06  962   1.777   2.346   2.797 -0.6939 -0.7811  0.0682
   51EMI    H0F  963   1.714   2.330   2.883  0.2273  0.2019  0.9540
   51EMI    C0N  964   1.700   2.457   2.724 -0.3913  0.2086 -0.1874
   51EMI    H0O  965   1.596   2.424   2.716 -0.2233  0.0202 -2.3592
   51EMI    H0P  966   1.705   2.556   2.768  0.4401  0.2352 -0.3391
   51EMI    H0Q  967   1.733   2.453   2.621 -2.0759 -2.6460 -0.7528
   51EMI    N02  968   1.906   2.378   2.847 -0.7196  0.7208 -0.6461
   51EMI    H0E  969   1.783   2.257   2.736  1.8071  0.0376 -1.0097
   52EMI    C01  970   0.592   0.961   5.030 -0.2952  0.8333 -0.3550
   52EMI    C04  971   0.553   1.166   5.008  0.1032  0.1491  0.7932
   52EMI    C03  972   0.565   1.145   5.137 -0.4717 -0.6016  0.2096
   52EMI    H07  973   0.617   0.862   4.999  0.4316  1.5335 -2.2017
   52EMI    H09  974   0.547   1.260   4.956  4.3770  0.1602 -0.0271
   52EMI    H08  975   0.568   1.216   5.217 -3.6952 -0.4835  0.3738
   52EMI    C05  976   0.587   0.941   5.280  0.5129 -0.5503 -0.7769
   52EMI    H0B  977   0.674   0.974   5.333 -0.8286 -0.5706  1.5662
   52EMI    H0C  978   0.496   0.963   5.334  1.1747  1.5920 -0.4308
   52EMI    H0D  979   0.591   0.834   5.268  0.2374 -1.0341  2.6061
   52EMI    N00  980   0.581   1.012   5.150 -0.1758  0.1636 -0.4466
   52EMI    C06  981   0.573   1.038   4.796  0.2725 -0.3220  0.3889
   52EMI    H0F  982   0.672   1.033   4.755  0.1362  0.8124 -0.1340
   52EMI    C0N  983   0.495   0.918   4.754 -0.2221 -0.5043  0.0815
   52EMI    H0O  984   0.537   0.820   4.774  0.2221 -0.3497 -0.0909
   52EMI    H0P  985   0.408   0.910   4.818  0.1395 -1.8489  0.4276
   52EMI    H0Q  986   0.469   0.932   4.650 -1.1196 -1.0683  0.2126
   52EMI    N02  987   0.565   1.049   4.942 -0.7856 -0.1811  0.0530
   52EMI    H0E  988   0.526   1.127   4.756 -0.3461 -0.5244  0.6463
   53EMI    C01  989   1.163   4.464   0.812 -0.3004 -0.2182  0.4520
   53EMI    C04  990   0.995   4.352   0.887 -0.1415  0.3542 -0.1772
   53EMI    C03  991   1.010   4.310   0.766  0.2422 -0.0906  0.1966
   53EMI    H07  992   1.248   4.528   0.815  0.9409 -1.8067  0.8215
   53EMI    H09  993   0.920   4.334   0.961 -0.2035 -0.1600 -0.3573
   53EMI    H08  994   0.951   4.235   0.718  1.7822 -0.2014 -1.6102
   53EMI    C05  995   1.153   4.392   0.573  0.3927 -0.0852 -0.2572
   53EMI    H0B  996   1.240   4.452   0.547 -0.6963  0.4138 -3.1200
   53EMI    H0C  997   1.172   4.292   0.539  0.3537  0.6149 -2.5330
   53EMI    H0D  998   1.072   4.422   0.508 -1.0990  0.5234  1.8133
   53EMI    N00  999   1.108   4.391   0.714 -0.3164  0.2617 -0.2614
   53EMI    C06 1000   1.095   4.516   1.039 -0.5015 -0.3169 -0.7936
   53EMI    H0F 1001   1.189   4.475   1.074 -1.8648 -2.0721  1.0769
   53EMI    C0N 1002   1.090   4.668   1.018  0.5187  0.2744  0.1911
   53EMI    H0O 1003   1.058   4.715   1.110  0.9692  1.2343 -0.1298
   53EMI    H0P 1004   1.189   4.700   0.990  0.1906  1.4795  0.3726
   53EMI    H0Q 1005   1.018   4.694   0.941  1.2038 -1.5874 -1.1670
   53EMI    N02 1006   1.085   4.449   0.914 -0.0311  0.0403  0.5446
   53EMI    H0E 1007   1.025   4.483   1.114  0.5481 -1.3113 -0.2152
   54EMI    C01 1008   3.073   0.488   3.134 -0.2569 -0.4755 -0.0785
   54EMI    C04 1009   3.125   0.404   3.327 -0.5312  0.6800 -0.2183
   54EMI    C03 1010   3.058   0.522   3.347  0.2869  0.0350 -0.5800
   54EMI    H07 1011   3.063   0.502   3.029  1.5199 -2.9522 -0.6811
   54EMI    H09 1012   3.174   0.329   3.385  0.7772  0.6581 -1.3064
   54EMI    H08 1013   3.031   0.577   3.434 -0.4434  0.3455 -0.9847
   54EMI    C05 1014   2.943   0.685   3.194  0.1700 -0.0514  0.1834
   54EMI    H0B 1015   3.011   0.768   3.186 -0.6130  0.8313  2.1360
   54EMI    H0C 1016   2.889   0.673   3.102  2.0226  0.9637 -1.1110
   54EMI    H0D 1017   2.870   0.695   3.273  0.0259  1.4022 -0.1184
   54EMI    N00 1018   3.015   0.560   3.224  0.0180 -0.0936  0.9510
   54EMI    C06 1019   3.197   0.277   3.122  0.1239 -0.3448 -0.1866
   54EMI    H0F 1020   3.252   0.229   3.201 -0.9867 -0.8321  0.3148
   54EMI    C0N 1021   3.105   0.185   3.054  0.0518 -0.3095  0.6455
   54EMI    H0O 1022   3.053   0.118   3.122  0.4545 -1.5615 -0.2681
   54EMI    H0P 1023   3.025   0.235   3.001  0.9715 -0.6146 -1.0979
   54EMI    H0Q 1024   3.151   0.124   2.978  0.2073 -1.1022  1.3559
   54EMI    N02 1025   3.133   0.390   3.190 -0.1367  0.3997 -0.5745
   54EMI    H0E 1026   3.268   0.323   3.056  0.8668 -0.0018  0.8228
   55EMI    C01 1027   4.106   4.720   3.912 -0.7147 -0.5365 -0.3895
   55EMI    C04 1028   4.229   4.543   3.906 -0.5397  1.1052  0.0917
   55EMI    C03 1029   4.236   4.586   4.029  0.7406  0.3038 -0.3030
   55EMI    H07 1030   4.049   4.805   3.879 -0.5449 -0.2082  0.1589
   55EMI    H09 1031   4.285   4.463   3.863  1.0664  1.9653  0.5100
   55EMI    H08 1032   4.309   4.563   4.104  0.1903  5.1151  2.1059
   55EMI    C05 1033   4.148   4.787   4.145 -0.2489  0.3537  0.1998
   55EMI    H0B 1034   4.242   4.833   4.172 -0.8668  3.3842 -2.2838
   55EMI    H0C 1035   4.083   4.867   4.113 -1.2018 -0.8078 -0.8890
   55EMI    H0D 1036   4.103   4.739   4.231  0.1799 -1.3636 -0.4997
   55EMI    N00 1037   4.157   4.700   4.033  0.5102 -0.1624 -0.0792
   55EMI    C06 1038   4.100   4.592   3.691 -0.4058  0.1560  0.6136
   55EMI    H0F 1039   4.024   4.665   3.669 -1.0611 -1.2862 -2.4730
   55EMI    C0N 1040   4.217   4.591   3.592  0.7859 -0.7006  0.2810
   55EMI    H0O 1041   4.265   4.686   3.611 -1.2778  0.4471  0.0972
   55EMI    H0P 1042   4.282   4.507   3.614  1.5805 -0.5308 -1.3200
   55EMI    H0Q 1043   4.196   4.586   3.486  1.6772 -2.0503  0.1507
   55EMI    N02 1044   4.136   4.616   3.832  0.0873 -0.6413  0.1532
   55EMI    H0E 1045   4.042   4.502   3.685 -0.9790  0.5218  0.5631
   56EMI    C01 1046   3.552   3.654   3.773 -0.1821  0.1231 -0.5266
   56EMI    C04 1047   3.701   3.721   3.636  0.0411 -0.4153 -0.3822
   56EMI    C03 1048   3.757   3.718   3.757  0.0766 -0.4021  0.5274
   56EMI    H07 1049   3.453   3.631   3.808  0.3500 -3.4320 -0.9675
   56EMI    H09 1050   3.738   3.776   3.552 -0.8503 -0.0348 -0.5361
   56EMI    H08 1051   3.857   3.741   3.785  0.1208 -0.9606  0.8485
   56EMI    C05 1052   3.664   3.660   3.991 -0.1873  0.2851 -0.4210
   56EMI    H0B 1053   3.568   3.646   4.037  1.4930 -0.9733  3.0107
   56EMI    H0C 1054   3.732   3.582   4.023 -2.4891 -1.5525  0.2598
   56EMI    H0D 1055   3.714   3.751   4.020  0.7930 -0.8014  1.4717
   56EMI    N00 1056   3.658   3.670   3.845 -0.7846  0.1811 -0.0855
   56EMI    C06 1057   3.476   3.676   3.534 -0.4154 -0.0364  0.3162
   56EMI    H0F 1058   3.491   3.589   3.473  0.0865  0.2733 -0.0143
   56EMI    C0N 1059   3.326   3.688   3.574 -0.3499 -0.1011 -0.4052
   56EMI    H0O 1060   3.277   3.715   3.481 -1.4656  1.0113  0.4711
   56EMI    H0P 1061   3.280   3.612   3.634  0.7920 -1.4585 -1.1768
   56EMI    H0Q 1062   3.318   3.777   3.636  1.3711  1.3209 -2.0531
   56EMI    N02 1063   3.574   3.680   3.649 -0.1832 -0.6892 -0.1113
   56EMI    H0E 1064   3.500   3.771   3.488  0.3769 -0.9328 -1.1755
   57EMI    C01 1065   4.310   1.351   2.892  0.3354 -0.3995 -0.1966
   57EMI    C04 1066   4.439   1.259   3.035 -0.6635 -0.1781 -0.1947
   57EMI    C03 1067   4.492   1.376   3.004 -0.5001 -0.0992  0.0300
   57EMI    H07 1068   4.239   1.356   2.812  0.8575  0.1077 -0.6422
   57EMI    H09 1069   4.477   1.185   3.102 -3.0050 -1.6047 -0.3399
   57EMI    H08 1070   4.586   1.414   3.040 -0.8621  0.0307  0.8667
   57EMI    C05 1071   4.427   1.571   2.853 -1.1034 -0.5967 -0.5122
   57EMI    H0B 1072   4.518   1.613   2.892 -2.2022 -0.7811  2.4764
   57EMI    H0C 1073   4.432   1.555   2.746  0.7759 -0.4952 -0.4676
   57EMI    H0D 1074   4.347   1.638   2.883 -1.5553 -1.7899  1.0724
   57EMI    N00 1075   4.396   1.445   2.921 -0.6231 -0.9884  0.3046
   57EMI    C06 1076   4.243   1.117   2.961 -0.5056 -0.6409 -1.0717
   57EMI    H0F 1077   4.155   1.146   2.906  1.3339  1.4080 -3.1636
   57EMI    C0N 1078   4.312   1.006   2.897  0.2714 -0.0775 -1.2437
   57EMI    H0O 1079   4.395   0.978   2.960 -0.6687 -0.2216 -0.0451
   57EMI    H0P 1080   4.243   0.923   2.904 -1.7593  1.6085 -0.2097
   57EMI    H0Q 1081   4.350   1.028   2.797  2.3068  1.5053 -0.2063
   57EMI    N02 1082   4.328   1.243   2.959  0.7048  0.4747 -0.6188
   57EMI    H0E 1083   4.214   1.095   3.063  0.0659  0.5995 -0.6137
   58EMI    C01 1084   0.315   4.863   3.511  0.4686 -0.1965 -0.5317
   58EMI    C04 1085   0.517   4.934   3.478 -0.6053  0.5061  0.1380
   58EMI    C03 1086   0.486   4.848   3.381 -0.5079  0.8759 -0.3290
   58EMI    H07 1087   0.222   4.842   3.559  0.3788 -0.8851 -0.9812
   58EMI    H09 1088   0.606   4.989   3.500  0.5578 -2.0810  2.5492
   58EMI    H08 1089   0.546   4.812   3.301  1.6157  0.9862  1.1298
   58EMI    C05 1090   0.278   4.727   3.300  0.1319  0.4869  0.2658
   58EMI    H0B 1091   0.319   4.628   3.286  2.6117  1.4922 -0.2003
   58EMI    H0C 1092   0.177   4.715   3.337 -1.2830  3.4127 -2.1322
   58EMI    H0D 1093   0.276   4.778   3.205  0.9419  1.6066  0.8313
   58EMI    N00 1094   0.351   4.815   3.390 -0.0778 -0.3832  0.3103
   58EMI    C06 1095   0.399   5.013   3.689 -0.1126  0.1488 -0.1879
   58EMI    H0F 1096   0.363   4.937   3.756  1.9931 -1.7044 -1.0543
   58EMI    C0N 1097   0.532   5.050   3.750  0.7467  0.0338 -0.5134
   58EMI    H0O 1098   0.600   4.965   3.749  0.2691 -0.3682 -1.9363
   58EMI    H0P 1099   0.589   5.132   3.706  0.8103  0.2704  0.0064
   58EMI    H0Q 1100   0.517   5.066   3.856 -2.6724 -4.4487  0.0130
   58EMI    N02 1101   0.408   4.943   3.557  0.0907  0.0299  0.3607
   58EMI    H0E 1102   0.330   5.096   3.678  0.4127  0.7795  1.0812
   59EMI    C01 1103   3.084   0.885   0.288  0.3449  0.7868  0.2386
   59EMI    C04 1104   3.291   0.848   0.352 -1.8351  0.1811 -0.4260
   59EMI    C03 1105   3.291   0.962   0.287 -0.3198  0.2029  0.2235
   59EMI    H07 1106   2.981   0.862   0.267  0.0826  1.5221  0.6805
   59EMI    H09 1107   3.367   0.802   0.411  0.2935  0.7862 -2.5531
   59EMI    H08 1108   3.365   1.036   0.266 -1.6397  1.7168  0.6624
   59EMI    C05 1109   3.113   1.104   0.163  0.3388 -0.5052 -0.4066
   59EMI    H0B 1110   3.006   1.095   0.153  0.5187 -0.5164 -3.1908
   59EMI    H0C 1111   3.133   1.201   0.206 -2.1837 -0.3956  0.6826
   59EMI    H0D 1112   3.167   1.094   0.070  0.7306  1.9739 -0.5239
   59EMI    N00 1113   3.160   0.988   0.244  0.4583  0.2395 -0.0232
   59EMI    C06 1114   3.127   0.647   0.364  0.2144  0.3770  1.0880
   59EMI    H0F 1115   3.039   0.629   0.304  2.3369 -0.7354 -1.9220
   59EMI    C0N 1116   3.230   0.547   0.320 -0.2767  0.1931  0.5635
   59EMI    H0O 1117   3.265   0.571   0.220  3.3808 -0.1978  1.6207
   59EMI    H0P 1118   3.312   0.546   0.391 -0.3226  1.0689  0.6373
   59EMI    H0Q 1119   3.197   0.444   0.308  1.9154 -0.3781 -1.1530
   59EMI    N02 1120   3.160   0.795   0.342 -0.0172 -0.3740 -0.1905
   59EMI    H0E 1121   3.121   0.634   0.471  2.8195  3.8240  1.8580
   60EMI    C01 1122   0.795   4.975   2.917 -0.3469  0.0482  0.4042
   60EMI    C04 1123   0.971   4.973   3.049  0.2757  0.8647  1.4636
   60EMI    C03 1124   0.974   4.863   2.967 -0.3026  0.1536 -0.2589
   60EMI    H07 1125   0.696   4.989   2.879 -0.3979 -1.9247 -0.3344
   60EMI    H09 1126   1.034   5.010   3.127  2.6764  0.2467 -0.0876
   60EMI    H08 1127   1.033   4.774   2.973 -1.0026 -0.2595  0.6391
   60EMI    C05 1128   0.810   4.762   2.799 -0.2675  0.0886  0.5864
   60EMI    H0B 1129   0.881   4.717   2.731  0.8738  2.4394  0.1334
   60EMI    H0C 1130   0.760   4.685   2.856 -0.1580 -1.2031 -0.9885
   60EMI    H0D 1131   0.741   4.805   2.728  0.4180  0.0753 -0.0992
   60EMI    N00 1132   0.863   4.865   2.888  0.2222  0.2969 -0.1571
   60EMI    C06 1133   0.785   5.147   3.087  0.0832 -0.6988 -0.2605
   60EMI    H0F 1134   0.691   5.152   3.035  0.7038 -1.8519 -1.5694
   60EMI    C0N 1135   0.769   5.112   3.231  0.1231 -0.3717 -0.4676
   60EMI    H0O 1136   0.715   5.019   3.240  1.1805 -1.0098 -0.4738
   60EMI    H0P 1137   0.857   5.103   3.294 -0.8581  0.8762  1.1333
   60EMI    H0Q 1138   0.720   5.193   3.284 -0.8115 -0.1590 -1.6002
   60EMI    N02 1139   0.855   5.039   3.011  0.1788  0.0198  0.0732
   60EMI    H0E 1140   0.833   5.242   3.074 -2.4134  0.8128  0.9269
   61EMI    C01 1141   1.754   0.419   4.984 -0.4228 -0.1061  0.7296
   61EMI    C04 1142   1.945   0.531   4.997 -0.4061 -0.2609 -0.3587
   61EMI    C03 1143   1.974   0.416   4.945  0.1703  0.8064  0.0632
   61EMI    H07 1144   1.653   0.390   5.000 -0.0950 -2.3912 -0.7861
   61EMI    H09 1145   2.017   0.606   5.022  0.3917 -0.1241 -2.8054
   61EMI    H08 1146   2.069   0.378   4.912 -0.1958 -0.6767  0.6486
   61EMI    C05 1147   1.842   0.197   4.917 -1.3147 -0.1066  0.6744
   61EMI    H0B 1148   1.915   0.135   4.968  0.8475  0.9575 -0.9756
   61EMI    H0C 1149   1.738   0.167   4.913 -0.4992 -3.2476  0.3064
   61EMI    H0D 1150   1.876   0.190   4.815 -1.7734  2.2173  0.3050
   61EMI    N00 1151   1.856   0.342   4.953  0.0086  0.2334 -0.4581
   61EMI    C06 1152   1.739   0.663   5.069 -0.1105  1.0212  0.2695
   61EMI    H0F 1153   1.769   0.692   5.169 -1.3243 -0.8567  1.2328
   61EMI    C0N 1154   1.752   0.761   4.960  0.5175 -0.0592  0.0396
   61EMI    H0O 1155   1.659   0.815   4.965  1.1842  1.1247 -0.0184
   61EMI    H0P 1156   1.825   0.841   4.957  0.3100  0.1168 -0.3203
   61EMI    H0Q 1157   1.763   0.710   4.865  0.7318  0.4606 -0.2175
   61EMI    N02 1158   1.809   0.537   5.020  0.2111 -0.5406 -0.2218
   61EMI    H0E 1159   1.640   0.622   5.077 -0.1596  1.2940  1.1548
   62EMI    C01 1160   4.239   1.922   1.422  0.5938 -0.0160  0.3772
   62EMI    C04 1161   4.180   1.842   1.230 -0.3915  0.6146  0.1676
   62EMI    C03 1162   4.216   1.969   1.216  0.5910  0.1714 -0.2288
   62EMI    H07 1163   4.247   1.941   1.527  1.6765 -0.1912  0.3328
   62EMI    H09 1164   4.146   1.769   1.160  2.5018  0.6331 -1.3955
   62EMI    H08 1165   4.223   2.028   1.127  1.0776 -0.9308 -0.9422
   62EMI    C05 1166   4.298   2.159   1.362 -0.5002  0.1725 -0.6375
   62EMI    H0B 1167   4.245   2.222   1.292  0.8084  1.4462 -0.5240
   62EMI    H0C 1168   4.268   2.186   1.462 -0.9419 -0.3241 -0.6322
   62EMI    H0D 1169   4.403   2.185   1.363  0.3111 -2.6626  1.9808
   62EMI    N00 1170   4.267   2.014   1.336  0.2913 -0.1242  0.2969
   62EMI    C06 1171   4.127   1.695   1.432 -0.4002 -0.6086 -0.5509
   62EMI    H0F 1172   4.171   1.684   1.530 -1.8306  0.6507  0.2868
   62EMI    C0N 1173   3.980   1.718   1.442  0.4451 -0.5375  0.1047
   62EMI    H0O 1174   3.972   1.748   1.546 -1.2628 -1.0957  0.1657
   62EMI    H0P 1175   3.961   1.808   1.384  1.3657  0.2791  1.0364
   62EMI    H0Q 1176   3.916   1.635   1.416  0.1935 -0.6305  0.9806
   62EMI    N02 1177   4.190   1.814   1.365 -0.3213 -0.7071  0.5262
   62EMI    H0E 1178   4.158   1.610   1.374  3.2840 -0.4688  0.9340
   63EMI    C01 1179   1.824   3.972   3.073  0.0568 -0.0413  0.4281
   63EMI    C04 1180   1.663   4.039   3.200 -0.1450  0.2177 -0.3182
   63EMI    C03 1181   1.628   3.922   3.153 -0.1308  0.4066 -0.0781
   63EMI    H07 1182   1.917   3.969   3.020  0.3006 -0.5585  0.8734
   63EMI    H09 1183   1.608   4.107   3.261 -0.0594 -0.1919  0.2145
   63EMI    H08 1184   1.541   3.862   3.166 -0.4456  0.4605 -1.7493
   63EMI    C05 1185   1.758   3.750   2.999  0.7868 -0.3277 -0.1366
   63EMI    H0B 1186   1.764   3.661   3.060 -0.2336  0.1263  0.6673
   63EMI    H0C 1187   1.674   3.745   2.932  0.0892 -3.2602  0.7887
   63EMI    H0D 1188   1.846   3.757   2.938  0.2194  1.6320 -0.8064
   63EMI    N00 1189   1.734   3.876   3.073 -0.1552 -0.0127  0.2267
   63EMI    C06 1190   1.870   4.186   3.196  1.2410 -0.2777  0.0343
   63EMI    H0F 1191   1.832   4.215   3.292 -0.7009 -0.2184 -0.7114
   63EMI    C0N 1192   2.015   4.140   3.213  0.1385  0.2183  0.4506
   63EMI    H0O 1193   2.036   4.046   3.264  0.9692 -0.1841 -0.5969
   63EMI    H0P 1194   2.055   4.127   3.113  1.8132  0.1893  1.0936
   63EMI    H0Q 1195   2.072   4.221   3.257 -0.8731  0.3273  1.6119
   63EMI    N02 1196   1.780   4.080   3.140 -0.5892  0.3129 -0.2377
   63EMI    H0E 1197   1.858   4.278   3.142  1.0086 -0.8170 -0.8584
   64EMI    C01 1198   2.697   0.241   1.702 -0.0386 -0.0406 -0.4892
   64EMI    C04 1199   2.526   0.208   1.840 -0.4565  0.2355 -0.0959
   64EMI    C03 1200   2.611   0.299   1.895 -0.7766  0.0765 -0.8892
   64EMI    H07 1201   2.748   0.227   1.609  1.6055 -0.3266  0.4116
   64EMI    H09 1202   2.429   0.179   1.871 -0.7218  0.2108 -0.9262
   64EMI    H08 1203   2.602   0.341   1.992 -0.6494  1.7374 -1.5584
   64EMI    C05 1204   2.829   0.404   1.846 -0.1899  0.2498 -0.0434
   64EMI    H0B 1205   2.795   0.498   1.887 -1.0466  0.6475 -1.6083
   64EMI    H0C 1206   2.887   0.353   1.923  0.5980  1.1157 -0.0374
   64EMI    H0D 1207   2.889   0.419   1.757 -0.0029 -1.0259 -0.1498
   64EMI    N00 1208   2.714   0.324   1.802 -0.1550  0.3183 -0.4760
   64EMI    C06 1209   2.518   0.085   1.621 -0.2651 -0.4381 -0.9269
   64EMI    H0F 1210   2.423   0.122   1.586 -1.0154 -1.7262 -0.3584
   64EMI    C0N 1211   2.599   0.051   1.497  0.4972 -0.0015 -0.4772
   64EMI    H0O 1212   2.691  -0.003   1.520  0.3102 -0.1635 -0.0934
   64EMI    H0P 1213   2.551  -0.015   1.425  0.7779  1.4997 -2.1111
   64EMI    H0Q 1214   2.621   0.142   1.443  4.2856  1.2222  2.6275
   64EMI    N02 1215   2.577   0.178   1.715 -0.5268  0.8537  0.1731
   64EMI    H0E 1216   2.509  -0.008   1.677  0.4860 -1.1311 -1.9144
   65EMI    C01 1217   0.485   2.146   1.394 -0.1214 -0.0584  0.2036
   65EMI    C04 1218   0.544   2.332   1.495 -0.1092  0.2225 -0.9019
   65EMI    C03 1219   0.461   2.363   1.402 -0.2783 -0.3207  0.0573
   65EMI    H07 1220   0.461   2.047   1.361 -4.9324 -0.1179  2.9334
   65EMI    H09 1221   0.588   2.396   1.569 -0.9230  0.2248 -0.3967
   65EMI    H08 1222   0.426   2.463   1.384  1.2487  0.3044  0.4072
   65EMI    C05 1223   0.321   2.234   1.231 -0.7741 -0.5182 -0.1888
   65EMI    H0B 1224   0.229   2.289   1.247 -1.2659 -1.1035 -0.8911
   65EMI    H0C 1225   0.359   2.266   1.135  0.2243 -1.5000 -0.1313
   65EMI    H0D 1226   0.291   2.130   1.222  2.2052 -1.4181 -0.8492
   65EMI    N00 1227   0.417   2.247   1.344 -0.2891 -0.1309 -0.4681
   65EMI    C06 1228   0.649   2.112   1.581  0.4232 -0.2419 -0.7282
   65EMI    H0F 1229   0.594   2.055   1.654 -2.8818 -0.2593 -3.0428
   65EMI    C0N 1230   0.720   2.025   1.482 -0.4819  0.3138 -0.7603
   65EMI    H0O 1231   0.662   1.953   1.427  0.7988  0.3949 -2.2752
   65EMI    H0P 1232   0.765   2.082   1.402  0.0323  1.4455  0.3035
   65EMI    H0Q 1233   0.791   1.961   1.533 -1.0149 -0.3749 -0.8733
   65EMI    N02 1234   0.562   2.196   1.488 -0.3588  0.2329 -0.3250
   65EMI    H0E 1235   0.713   2.181   1.635 -1.3813 -0.4062  1.7869
   66EMI    C01 1236   2.577   1.576   1.650 -0.6375  1.0581 -0.3250
   66EMI    C04 1237   2.456   1.673   1.801 -0.2769 -0.2883  0.8441
   66EMI    C03 1238   2.397   1.692   1.683  0.1889 -0.1854  0.4054
   66EMI    H07 1239   2.651   1.512   1.607 -0.9043 -0.4100  1.2989
   66EMI    H09 1240   2.435   1.711   1.899  1.3612  0.6145  0.8832
   66EMI    H08 1241   2.316   1.757   1.661 -1.8043 -2.1881  1.4656
   66EMI    C05 1242   2.441   1.619   1.449  0.2496  0.4256  0.0567
   66EMI    H0B 1243   2.529   1.577   1.404 -0.2640 -1.6108  0.8637
   66EMI    H0C 1244   2.349   1.565   1.433  0.3316  0.3171 -0.0436
   66EMI    H0D 1245   2.435   1.720   1.410 -3.1499  0.0772 -0.6066
   66EMI    N00 1246   2.469   1.618   1.590  0.1485  0.0744 -0.4855
   66EMI    C06 1247   2.666   1.595   1.884  0.4262  0.4351  0.2863
   66EMI    H0F 1248   2.722   1.505   1.861  0.9686  0.5614  1.0785
   66EMI    C0N 1249   2.755   1.713   1.897 -0.2839 -0.1133 -0.2676
   66EMI    H0O 1250   2.768   1.774   1.808 -1.0676  2.2377  1.1349
   66EMI    H0P 1251   2.714   1.767   1.981  0.1231 -1.3445  0.7531
   66EMI    H0Q 1252   2.853   1.680   1.928 -1.2246 -0.7169  2.2856
   66EMI    N02 1253   2.574   1.606   1.775 -0.0683 -0.3208  0.7367
   66EMI    H0E 1254   2.609   1.578   1.974  1.3988 -0.4761  0.7490
   67EMI    C01 1255   1.966   4.832   2.251  0.0307  0.0954  0.7273
   67EMI    C04 1256   1.996   4.682   2.097 -0.5473 -0.5582 -0.1949
   67EMI    C03 1257   1.926   4.775   2.040  0.0589 -0.8195 -1.2084
   67EMI    H07 1258   1.973   4.885   2.343 -2.3516  3.6076 -0.8962
   67EMI    H09 1259   2.041   4.598   2.049  0.5802 -0.0286 -0.1150
   67EMI    H08 1260   1.876   4.775   1.945 -0.7167  1.1964 -0.8567
   67EMI    C05 1261   1.857   5.009   2.123  0.0215 -0.9792  0.9572
   67EMI    H0B 1262   1.930   5.089   2.126  0.3480 -0.8954 -2.9957
   67EMI    H0C 1263   1.795   5.012   2.034  0.3444 -1.8073  0.6925
   67EMI    H0D 1264   1.794   5.026   2.208 -1.0507  1.4071 -0.2282
   67EMI    N00 1265   1.912   4.874   2.139 -0.5709 -0.4671 -0.7560
   67EMI    C06 1266   2.108   4.649   2.328  0.2566  0.1801  0.2888
   67EMI    H0F 1267   2.207   4.690   2.333  0.6711 -0.4889 -1.5491
   67EMI    C0N 1268   2.032   4.642   2.457 -0.4367 -0.0569 -0.3998
   67EMI    H0O 1269   2.036   4.732   2.517 -1.8449  0.2031 -0.6559
   67EMI    H0P 1270   1.928   4.614   2.440 -0.3912 -1.2040  0.9984
   67EMI    H0Q 1271   2.072   4.564   2.521  1.9506  1.8539  0.6175
   67EMI    N02 1272   2.029   4.718   2.228  0.5180 -0.2933 -0.1558
   67EMI    H0E 1273   2.122   4.551   2.283  0.1598  1.3770 -2.5884
   68EMI    C01 1274   3.953   1.204   0.506 -0.2791 -0.2669 -0.2283
   68EMI    C04 1275   4.011   0.998   0.456  0.4040 -0.4317 -0.1026
   68EMI    C03 1276   4.084   1.038   0.563  0.4078 -0.1981 -0.7153
   68EMI    H07 1277   3.907   1.301   0.503  1.5397  0.6955  0.8594
   68EMI    H09 1278   4.015   0.913   0.392  0.4370 -0.8677  0.4731
   68EMI    H08 1279   4.160   0.981   0.612  1.7666  1.0285 -1.3263
   68EMI    C05 1280   4.066   1.241   0.719 -0.1973  0.5080  0.5712
   68EMI    H0B 1281   4.052   1.170   0.800 -1.9480 -2.1148 -1.8435
   68EMI    H0C 1282   4.165   1.281   0.706  0.4664 -1.2427 -0.0502
   68EMI    H0D 1283   3.989   1.316   0.728  0.0089  0.7504  0.3343
   68EMI    N00 1284   4.027   1.159   0.608  0.0598  0.2301  0.0367
   68EMI    C06 1285   3.841   1.122   0.306 -0.3005  0.0272  0.2310
   68EMI    H0F 1286   3.908   1.120   0.222  0.8990  0.5778  1.1467
   68EMI    C0N 1287   3.729   1.022   0.298 -0.5704 -0.6448  0.1242
   68EMI    H0O 1288   3.680   1.032   0.394  2.5360 -0.4358  1.8032
   68EMI    H0P 1289   3.654   1.047   0.223 -0.9400  1.7636  1.2093
   68EMI    H0Q 1290   3.781   0.927   0.288 -0.2943 -0.3539 -1.3800
   68EMI    N02 1291   3.932   1.105   0.424  0.4118  0.1712  0.5468
   68EMI    H0E 1292   3.811   1.225   0.299  0.0250  0.0829 -0.4540
   69EMI    C01 1293   3.643   4.439   0.818 -0.3245 -0.0872  0.0311
   69EMI    C04 1294   3.673   4.605   0.686 -0.4068  1.1577 -0.4718
   69EMI    C03 1295   3.709   4.495   0.620  0.7335 -0.0387  0.0818
   69EMI    H07 1296   3.602   4.383   0.900  0.2689 -0.7260 -0.0928
   69EMI    H09 1297   3.684   4.705   0.650  1.5574  2.0601  2.2681
   69EMI    H08 1298   3.743   4.494   0.519  1.7891  2.9974  0.3001
   69EMI    C05 1299   3.670   4.249   0.658  0.9346 -0.6302  1.0784
   69EMI    H0B 1300   3.569   4.211   0.665  1.0479 -1.1052  0.2930
   69EMI    H0C 1301   3.702   4.260   0.555 -0.7634  0.2165  0.6057
   69EMI    H0D 1302   3.745   4.200   0.718  1.7567  0.4111  0.9257
   69EMI    N00 1303   3.664   4.392   0.697  0.3326 -0.0248 -0.0197
   69EMI    C06 1304   3.555   4.650   0.907 -0.8485 -0.3469  0.4413
   69EMI    H0F 1305   3.448   4.638   0.916 -0.7756  0.1508  2.3437
   69EMI    C0N 1306   3.629   4.658   1.036 -0.4671 -0.3269  0.3012
   69EMI    H0O 1307   3.729   4.699   1.022 -0.8690  0.3068 -0.8311
   69EMI    H0P 1308   3.573   4.722   1.102  0.5068  1.6678 -0.7119
   69EMI    H0Q 1309   3.656   4.563   1.080 -0.8502 -1.5443 -1.9665
   69EMI    N02 1310   3.627   4.563   0.806  0.0088 -0.0860 -0.8536
   69EMI    H0E 1311   3.569   4.748   0.865 -2.2480  0.1964  1.1706
   70EMI    C01 1312   1.822   3.300   2.501 -0.7958 -0.0301 -0.7125
   70EMI    C04 1313   2.029   3.272   2.441  0.2529 -0.1035  0.5416
   70EMI    C03 1314   1.967   3.155   2.415 -0.2255 -0.5015  0.5971
   70EMI    H07 1315   1.735   3.347   2.544  0.3875  1.8546 -0.2530
   70EMI    H09 1316   2.131   3.301   2.428  0.2276 -0.5708 -0.8176
   70EMI    H08 1317   2.009   3.058   2.402  0.7848 -0.3329  2.2894
   70EMI    C05 1318   1.730   3.074   2.459  0.1168  0.5981  0.6112
   70EMI    H0B 1319   1.769   2.974   2.458 -0.9913  0.0953 -2.4077
   70EMI    H0C 1320   1.666   3.075   2.546 -0.1875 -2.4407  0.5366
   70EMI    H0D 1321   1.662   3.090   2.377  0.2117 -0.1173  0.3888
   70EMI    N00 1322   1.838   3.178   2.454  0.1700 -0.5710 -0.3676
   70EMI    C06 1323   1.966   3.505   2.523  0.0849 -0.4836 -0.4329
   70EMI    H0F 1324   2.024   3.511   2.614  1.7977  2.6490 -1.5999
   70EMI    C0N 1325   2.041   3.577   2.405  0.0309 -0.2326  0.1443
   70EMI    H0O 1326   2.022   3.534   2.307  0.4860  1.8973 -0.9381
   70EMI    H0P 1327   2.015   3.682   2.399  3.5812  0.8042  0.5516
   70EMI    H0Q 1328   2.148   3.569   2.419  0.0527 -1.6899 -0.7073
   70EMI    N02 1329   1.934   3.365   2.490 -0.0990  0.2667 -0.2211
   70EMI    H0E 1330   1.874   3.557   2.545  2.0721  2.2964  2.0764
   71EMI    C01 1331   1.560   4.816   3.402 -0.1104  0.2363 -0.2133
   71EMI    C04 1332   1.588   4.897   3.603  0.4673  0.0662 -0.2256
   71EMI    C03 1333   1.456   4.889   3.581  0.0680  0.3322  0.3835
   71EMI    H07 1334   1.570   4.775   3.304  1.2992 -0.5696  0.2404
   71EMI    H09 1335   1.650   4.937   3.680  0.8549  0.1082 -0.5545
   71EMI    H08 1336   1.369   4.916   3.635  0.1291  2.9140 -0.6511
   71EMI    C05 1337   1.317   4.768   3.405  0.0132  0.3871 -0.0842
   71EMI    H0B 1338   1.280   4.683   3.459 -2.9812  0.0080 -2.5096
   71EMI    H0C 1339   1.248   4.850   3.393  0.8426  0.9229 -1.4693
   71EMI    H0D 1340   1.349   4.734   3.308 -0.0976  0.5596 -0.1817
   71EMI    N00 1341   1.440   4.821   3.458 -0.7025  0.0267 -0.2135
   71EMI    C06 1342   1.797   4.827   3.478  0.5125  0.0564 -0.3294
   71EMI    H0F 1343   1.823   4.771   3.567  1.7684  2.7206  1.1344
   71EMI    C0N 1344   1.847   4.755   3.357  0.1434  0.5871 -0.4635
   71EMI    H0O 1345   1.842   4.817   3.268  1.6592  0.9263 -0.3458
   71EMI    H0P 1346   1.955   4.745   3.357  0.4807  3.1804  1.3118
   71EMI    H0Q 1347   1.798   4.658   3.356 -0.3807  0.6884  2.8125
   71EMI    N02 1348   1.651   4.842   3.493 -1.0715 -0.1035 -0.6653
   71EMI    H0E 1349   1.839   4.927   3.483  1.0821 -0.2256  1.0665
   72EMI    C01 1350   3.237   2.273   4.723 -0.5347 -0.1795 -0.2418
   72EMI    C04 1351   3.095   2.438   4.721 -0.3469 -0.3208 -0.2196
   72EMI    C03 1352   3.215   2.485   4.673 -0.4162 -0.4377 -0.1967
   72EMI    H07 1353   3.285   2.179   4.741 -0.8165 -0.5875 -1.5687
   72EMI    H09 1354   3.006   2.495   4.736 -0.5094 -0.6631  0.1292
   72EMI    H08 1355   3.222   2.581   4.627 -2.3376 -1.9309 -4.1772
   72EMI    C05 1356   3.448   2.387   4.656  0.2548 -0.1659  0.3342
   72EMI    H0B 1357   3.458   2.429   4.556  2.5528  0.7695  0.8826
   72EMI    H0C 1358   3.505   2.444   4.728 -1.2963  0.2206  1.3072
   72EMI    H0D 1359   3.475   2.283   4.661  0.5353 -0.0480  1.5390
   72EMI    N00 1360   3.306   2.382   4.689  0.0255  0.0685  0.8359
   72EMI    C06 1361   3.017   2.206   4.790  1.0436 -0.2360  0.3967
   72EMI    H0F 1362   3.020   2.192   4.897 -1.4932 -1.5035  0.3783
   72EMI    C0N 1363   2.876   2.267   4.766 -0.4921  0.0455  0.0748
   72EMI    H0O 1364   2.807   2.183   4.763 -0.8510  0.3327  0.1263
   72EMI    H0P 1365   2.852   2.327   4.853  0.3318 -1.2628  1.2442
   72EMI    H0Q 1366   2.872   2.311   4.667  1.4607 -0.3725 -0.2123
   72EMI    N02 1367   3.113   2.305   4.765 -0.1335  0.0123  0.5782
   72EMI    H0E 1368   3.029   2.121   4.723 -2.3348 -0.1652 -0.4856
   73EMI    C01 1369   4.669   3.986   4.709  1.1396 -0.1522  0.7410
   73EMI    C04 1370   4.499   4.061   4.822 -0.3127 -0.1914  0.2902
   73EMI    C03 1371   4.537   3.943   4.874 -0.0908 -0.1281 -0.0659
   73EMI    H07 1372   4.734   3.970   4.626 -1.7673 -0.3814 -1.6612
   73EMI    H09 1373   4.421   4.125   4.855 -1.4121 -0.8384 -0.9633
   73EMI    H08 1374   4.496   3.881   4.951 -0.6553 -1.8025 -1.6323
   73EMI    C05 1375   4.717   3.774   4.828 -0.4194  0.4458  0.2730
   73EMI    H0B 1376   4.726   3.747   4.932  2.0020 -2.9789 -0.6565
   73EMI    H0C 1377   4.675   3.691   4.774  0.8303  0.5342 -0.8932
   73EMI    H0D 1378   4.821   3.788   4.800 -0.5885 -1.2661 -1.4120
   73EMI    N00 1379   4.642   3.894   4.803 -0.5932  0.0217  0.4250
   73EMI    C06 1380   4.548   4.198   4.617  0.5151 -0.0547 -0.8206
   73EMI    H0F 1381   4.570   4.162   4.518  1.2843 -0.4304 -0.5161
   73EMI    C0N 1382   4.410   4.240   4.616  0.1415 -0.2093  0.4050
   73EMI    H0O 1383   4.398   4.323   4.547  0.4531  0.1561  0.7771
   73EMI    H0P 1384   4.341   4.158   4.599  1.3675 -1.4403  1.2058
   73EMI    H0Q 1385   4.385   4.284   4.712 -0.3330 -1.0566  0.6778
   73EMI    N02 1386   4.575   4.081   4.712 -0.1307 -0.2394 -0.1327
   73EMI    H0E 1387   4.610   4.284   4.640 -0.7102  0.6697 -0.0698
   74EMI    C01 1388   0.885   4.947   0.626 -0.3429  0.2986  0.3505
   74EMI    C04 1389   0.781   4.909   0.439 -0.5351  0.3970  0.2972
   74EMI    C03 1390   0.909   4.875   0.424 -0.6198 -0.0801  0.7348
   74EMI    H07 1391   0.905   4.977   0.727 -0.9092 -2.0933  1.2269
   74EMI    H09 1392   0.696   4.902   0.374 -0.1012  1.2825 -0.3834
   74EMI    H08 1393   0.968   4.843   0.341 -1.6818  2.5695 -1.2250
   74EMI    C05 1394   1.113   4.864   0.569  0.2845 -0.7751  0.5750
   74EMI    H0B 1395   1.176   4.950   0.558 -0.2245 -0.4536  0.1084
   74EMI    H0C 1396   1.120   4.816   0.665 -2.7273 -0.0177  1.2804
   74EMI    H0D 1397   1.136   4.798   0.486 -0.7240 -1.3712  0.7426
   74EMI    N00 1398   0.976   4.902   0.540  0.0341  0.9143  0.0894
   74EMI    C06 1399   0.652   5.023   0.631  0.5626  0.0533  0.7053
   74EMI    H0F 1400   0.628   5.122   0.594  0.3920 -0.9411 -2.0401
   74EMI    C0N 1401   0.531   4.933   0.626  0.2114 -0.8873  0.5042
   74EMI    H0O 1402   0.450   4.963   0.560 -0.2113  0.2893  1.5143
   74EMI    H0P 1403   0.563   4.834   0.597 -0.6232 -1.1420  0.4099
   74EMI    H0Q 1404   0.478   4.909   0.718  0.1914 -1.3899  0.3659
   74EMI    N02 1405   0.770   4.965   0.566 -0.5328 -0.0604 -0.1250
   74EMI    H0E 1406   0.686   5.032   0.733 -1.3838  1.6576  1.2869
   75EMI    C01 1407   1.570   2.061   3.618  0.8840  0.2796 -0.0236
   75EMI    C04 1408   1.760   2.027   3.508 -0.3496  0.2965 -0.0239
   75EMI    C03 1409   1.690   2.113   3.438  0.5179 -0.1466 -0.6841
   75EMI    H07 1410   1.508   2.052   3.705 -0.4341 -0.7745 -1.0275
   75EMI    H09 1411   1.851   1.975   3.488 -0.8240 -0.7280  0.4174
   75EMI    H08 1412   1.711   2.156   3.343 -1.9724  0.5033 -0.9980
   75EMI    C05 1413   1.452   2.204   3.445 -0.1583  0.1878  0.4957
   75EMI    H0B 1414   1.390   2.229   3.529 -0.4943 -3.6484  1.6137
   75EMI    H0C 1415   1.488   2.300   3.411 -2.1272 -0.3631 -3.7941
   75EMI    H0D 1416   1.384   2.153   3.378 -0.3846 -0.0002  0.8692
   75EMI    N00 1417   1.562   2.120   3.498 -0.1543  0.3913  0.3321
   75EMI    C06 1418   1.732   1.923   3.733 -0.6532 -0.1577 -0.3625
   75EMI    H0F 1419   1.725   1.981   3.824 -0.0917 -0.0540 -0.3782
   75EMI    C0N 1420   1.681   1.781   3.737 -0.2249 -0.3976  0.4153
   75EMI    H0O 1421   1.572   1.782   3.743 -0.1653  1.8265  2.4111
   75EMI    H0P 1422   1.732   1.730   3.657  0.7235  1.8986 -0.5004
   75EMI    H0Q 1423   1.715   1.726   3.825 -0.3057 -3.3699 -1.2865
   75EMI    N02 1424   1.684   1.998   3.617  0.4219 -0.4488 -1.3038
   75EMI    H0E 1425   1.839   1.918   3.714 -0.4395 -0.3116  0.7779
   76EMI    C01 1426   2.301   3.932   4.163  0.3980  0.3717  0.0960
   76EMI    C04 1427   2.488   3.838   4.226  0.1254  0.3510 -0.4955
   76EMI    C03 1428   2.474   3.958   4.284 -0.5290  0.9042 -0.8594
   76EMI    H07 1429   2.222   3.953   4.095  0.2992 -1.3282 -0.3745
   76EMI    H09 1430   2.568   3.769   4.240 -1.7075 -1.4633  2.0014
   76EMI    H08 1431   2.538   4.006   4.355 -3.1268  2.5054  0.5461
   76EMI    C05 1432   2.307   4.153   4.276 -0.4956  0.8625  0.1282
   76EMI    H0B 1433   2.366   4.224   4.220  1.1533  0.6210  1.4987
   76EMI    H0C 1434   2.201   4.148   4.254 -0.6815  0.2929  1.1305
   76EMI    H0D 1435   2.306   4.180   4.380  2.6375  1.0620  0.2030
   76EMI    N00 1436   2.358   4.013   4.242  0.1687  0.0206  0.4201
   76EMI    C06 1437   2.357   3.698   4.073 -0.0994  0.7162  0.1033
   76EMI    H0F 1438   2.337   3.615   4.138  1.2894  1.3730  1.4317
   76EMI    C0N 1439   2.245   3.721   3.980 -0.2950 -0.1563  0.0412
   76EMI    H0O 1440   2.260   3.811   3.921 -0.0896  1.6053  2.6344
   76EMI    H0P 1441   2.243   3.642   3.905  3.0260  1.0029 -1.4763
   76EMI    H0Q 1442   2.148   3.730   4.027 -1.2545 -0.4439 -1.7643
   76EMI    N02 1443   2.373   3.814   4.155  0.3941  0.7491 -0.2822
   76EMI    H0E 1444   2.439   3.683   4.004  1.6713  0.6429  2.1194
   77EMI    C01 1445   2.983   0.326   0.765 -0.5646  0.3490 -0.6251
   77EMI    C04 1446   2.935   0.135   0.861 -0.8176  0.4922  0.8267
   77EMI    C03 1447   2.830   0.172   0.784 -1.0270 -0.1737 -0.2638
   77EMI    H07 1448   3.050   0.402   0.729  0.8699 -0.4769  0.1880
   77EMI    H09 1449   2.955   0.050   0.923  0.0072  1.3150  1.7460
   77EMI    H08 1450   2.742   0.114   0.764  0.1027 -2.1544  0.1731
   77EMI    C05 1451   2.785   0.360   0.613 -0.1956  0.4289 -0.0556
   77EMI    H0B 1452   2.840   0.433   0.555  0.1598  0.6919  0.5963
   77EMI    H0C 1453   2.751   0.282   0.547  0.5374 -0.4779  0.6106
   77EMI    H0D 1454   2.703   0.416   0.655 -0.9762  0.5071 -1.6067
   77EMI    N00 1455   2.865   0.292   0.718 -0.1784 -0.6454 -0.2014
   77EMI    C06 1456   3.147   0.252   0.936  0.4540 -0.0911  0.1216
   77EMI    H0F 1457   3.107   0.260   1.037  0.0388 -2.4928  0.2033
   77EMI    C0N 1458   3.241   0.138   0.919 -0.1541  0.1756 -0.4503
   77EMI    H0O 1459   3.333   0.161   0.972  1.3857 -0.7648 -2.5493
   77EMI    H0P 1460   3.191   0.049   0.956 -0.2993  1.0278  1.5388
   77EMI    H0Q 1461   3.263   0.130   0.813 -1.8151 -0.4680 -0.7739
   77EMI    N02 1462   3.024   0.237   0.857  0.2642 -0.5742  0.4435
   77EMI    H0E 1463   3.189   0.345   0.902 -1.3512 -0.0862 -2.3653
   78EMI    C01 1464   0.786   1.367   2.284  0.0605 -0.7319  0.0113
   78EMI    C04 1465   0.595   1.342   2.185 -0.4607 -0.3307  0.0206
   78EMI    C03 1466   0.646   1.464   2.152  0.0336 -0.4384 -0.0936
   78EMI    H07 1467   0.865   1.353   2.354 -1.2837 -1.0223  1.5336
   78EMI    H09 1468   0.500   1.298   2.164 -0.8789 -0.7899  2.5696
   78EMI    H08 1469   0.604   1.539   2.088  1.1611 -0.1857 -0.5535
   78EMI    C05 1470   0.866   1.590   2.196 -0.2138 -0.6000  0.2235
   78EMI    H0B 1471   0.969   1.557   2.199  0.0444  0.1517 -0.1794
   78EMI    H0C 1472   0.846   1.634   2.099  0.5707  1.0594  0.7889
   78EMI    H0D 1473   0.828   1.658   2.270 -0.8895  2.4216 -2.6649
   78EMI    N00 1474   0.769   1.476   2.209  0.0647  0.0999  0.2898
   78EMI    C06 1475   0.691   1.144   2.307  0.4852 -0.3671 -0.6853
   78EMI    H0F 1476   0.750   1.083   2.240  1.5576 -0.7414  0.5582
   78EMI    C0N 1477   0.737   1.148   2.455  0.8965  0.9650 -0.3598
   78EMI    H0O 1478   0.845   1.136   2.451  0.8765  0.5271  0.2491
   78EMI    H0P 1479   0.704   1.235   2.510 -0.7850 -0.4640  1.0119
   78EMI    H0Q 1480   0.691   1.061   2.501  0.0663  1.0460 -1.0182
   78EMI    N02 1481   0.698   1.276   2.255 -0.1866 -0.3491  0.4740
   78EMI    H0E 1482   0.594   1.098   2.292  0.3527 -0.1557 -0.4715
   79EMI    C01 1483   3.996   2.312   4.354  0.1585 -0.9437  0.6222
   79EMI    C04 1484   3.906   2.116   4.368  0.5646 -0.2026  0.2862
   79EMI    C03 1485   3.816   2.206   4.406 -0.4330 -0.0789  0.9375
   79EMI    H07 1486   4.068   2.389   4.340 -1.6638  0.8363  0.5272
   79EMI    H09 1487   3.912   2.009   4.371  4.0777 -0.1252  0.3088
   79EMI    H08 1488   3.715   2.192   4.439 -0.5499 -3.3696 -0.4628
   79EMI    C05 1489   3.793   2.461   4.370  0.3667  0.2860  0.8414
   79EMI    H0B 1490   3.777   2.506   4.467  2.8111  1.9953  0.5651
   79EMI    H0C 1491   3.839   2.526   4.297  0.8976  0.7958  1.6048
   79EMI    H0D 1492   3.701   2.432   4.322  1.6270 -1.3395 -0.7301
   79EMI    N00 1493   3.868   2.333   4.370  0.3170  0.5100  0.2101
   79EMI    C06 1494   4.143   2.130   4.289  0.3477  0.2225  0.7525
   79EMI    H0F 1495   4.146   2.177   4.192  1.0435 -1.4233 -0.0497
   79EMI    C0N 1496   4.258   2.155   4.380  0.3219  0.7291 -0.6385
   79EMI    H0O 1497   4.226   2.174   4.482  0.7265 -3.8055  0.5447
   79EMI    H0P 1498   4.294   2.054   4.391 -1.7190  0.1300  1.3494
   79EMI    H0Q 1499   4.337   2.223   4.349  1.5791  0.7739  2.3738
   79EMI    N02 1500   4.020   2.184   4.335 -0.2626 -0.3419  0.1895
   79EMI    H0E 1501   4.121   2.025   4.287 -2.0717  0.6092  2.4628
   80EMI    C01 1502   4.413   2.951   3.785 -0.2688  0.0275 -0.8662
   80EMI    C04 1503   4.248   2.816   3.746 -0.8028  0.8853  0.2506
   80EMI    C03 1504   4.312   2.840   3.631  0.2597  0.7449  0.6210
   80EMI    H07 1505   4.487   3.004   3.842 -0.7270 -0.3212  0.0795
   80EMI    H09 1506   4.165   2.753   3.769 -0.8019  0.9330  0.3866
   80EMI    H08 1507   4.279   2.809   3.534  0.1331 -1.1493  1.2215
   80EMI    C05 1508   4.507   2.973   3.556  0.0378  0.0586 -0.5280
   80EMI    H0B 1509   4.440   3.041   3.505 -0.3923 -0.1966 -0.3066
   80EMI    H0C 1510   4.593   3.021   3.600  1.4707 -1.6888 -1.3070
   80EMI    H0D 1511   4.533   2.896   3.484 -0.7681 -1.1760  0.4703
   80EMI    N00 1512   4.413   2.929   3.656  0.0564  0.9066  0.2069
   80EMI    C06 1513   4.275   2.898   3.987 -0.4008 -0.6496  0.6572
   80EMI    H0F 1514   4.335   2.977   4.029 -0.4958  0.3581 -1.0194
   80EMI    C0N 1515   4.125   2.931   3.998  0.0322  0.0660 -0.0881
   80EMI    H0O 1516   4.103   3.031   3.961  1.4240  0.5164  0.2359
   80EMI    H0P 1517   4.061   2.856   3.954 -0.5413 -0.9295  2.2677
   80EMI    H0Q 1518   4.094   2.937   4.102  0.4864  0.4932  0.0282
   80EMI    N02 1519   4.318   2.886   3.846  0.3129  0.2682 -0.2988
   80EMI    H0E 1520   4.310   2.810   4.039 -1.6099 -0.8922  1.1046
   81EMI    C01 1521   1.171   0.922   3.816  0.1676  0.0087  0.2623
   81EMI    C04 1522   1.297   0.916   3.986 -0.0078  0.5983 -0.5053
   81EMI    C03 1523   1.262   1.042   3.974 -0.4358  0.2530 -0.0567
   81EMI    H07 1524   1.097   0.901   3.742  0.9779  0.9417 -0.8303
   81EMI    H09 1525   1.357   0.870   4.062  0.0520  1.9932  0.3285
   81EMI    H08 1526   1.292   1.128   4.030  1.3042  1.4478 -2.6078
   81EMI    C05 1527   1.160   1.169   3.787 -0.8911 -0.0495 -0.0148
   81EMI    H0B 1528   1.245   1.216   3.741 -0.5281 -1.7309 -1.1526
   81EMI    H0C 1529   1.089   1.132   3.714 -0.4790  0.0104 -0.4537
   81EMI    H0D 1530   1.104   1.229   3.857 -1.5037 -0.2176 -0.3468
   81EMI    N00 1531   1.196   1.046   3.853  0.0808 -0.8604  0.2251
   81EMI    C06 1532   1.221   0.698   3.881  0.0322 -0.1918  0.6555
   81EMI    H0F 1533   1.309   0.639   3.862 -0.2005 -0.5916  0.7868
   81EMI    C0N 1534   1.154   0.652   4.007  0.2295  0.2359 -0.8324
   81EMI    H0O 1535   1.097   0.738   4.041  0.7445  0.7060 -1.1485
   81EMI    H0P 1536   1.089   0.566   3.996  0.6513 -0.4095  1.2679
   81EMI    H0Q 1537   1.226   0.635   4.086 -0.4211  0.1460 -0.2430
   81EMI    N02 1538   1.244   0.841   3.886  0.7332 -0.2819  0.5349
   81EMI    H0E 1539   1.162   0.677   3.793 -1.0046  2.2537  0.6938
   82EMI    C01 1540   3.791   1.754   1.086  0.2006 -0.2597 -0.2116
   82EMI    C04 1541   3.668   1.746   0.912  0.1801 -0.0523  0.3488
   82EMI    C03 1542   3.591   1.722   1.017  0.1611  0.2503  0.7730
   82EMI    H07 1543   3.871   1.756   1.157  0.2288  3.8855 -0.0960
   82EMI    H09 1544   3.640   1.749   0.809 -0.0036 -0.8531  0.3737
   82EMI    H08 1545   3.489   1.694   1.024  0.0131 -0.2301 -2.3004
   82EMI    C05 1546   3.627   1.724   1.263  0.1905 -0.6172  0.0642
   82EMI    H0B 1547   3.659   1.811   1.318  2.0155 -1.4811  0.4614
   82EMI    H0C 1548   3.522   1.702   1.259 -0.0095  0.3212 -0.0927
   82EMI    H0D 1549   3.689   1.641   1.295  2.0372  0.1754 -1.2151
   82EMI    N00 1550   3.670   1.741   1.124 -0.2662 -0.0124  0.1136
   82EMI    C06 1551   3.904   1.799   0.869 -0.3319 -0.0256 -0.2163
   82EMI    H0F 1552   3.937   1.706   0.824 -0.2380  0.3922 -1.0381
   82EMI    C0N 1553   3.866   1.898   0.771 -0.3649 -0.4793 -0.2447
   82EMI    H0O 1554   3.785   1.855   0.713 -2.0548  2.3795 -0.1705
   82EMI    H0P 1555   3.853   1.995   0.818 -0.5748 -1.0512  0.9226
   82EMI    H0Q 1556   3.959   1.918   0.719  0.7439  1.7366  2.3482
   82EMI    N02 1557   3.789   1.782   0.957 -0.5346 -0.0635 -0.2625
   82EMI    H0E 1558   3.984   1.833   0.934 -1.9610 -1.1916  2.5823
   83EMI    C01 1559   0.679   4.944   1.863  0.2805  0.7294  0.4362
   83EMI    C04 1560   0.785   4.897   2.053 -0.0141 -0.3503 -0.2008
   83EMI    C03 1561   0.703   4.997   2.073 -0.5803 -0.2917  0.2855
   83EMI    H07 1562   0.632   4.950   1.767 -0.7955  1.3401  0.9844
   83EMI    H09 1563   0.836   4.836   2.125  0.2303 -0.5668 -0.5569
   83EMI    H08 1564   0.685   5.039   2.170  2.0071 -1.3745  1.3094
   83EMI    C05 1565   0.545   5.144   1.942 -0.2278  0.6378 -0.2294
   83EMI    H0B 1566   0.552   5.198   2.036  0.2086  0.1060  0.0495
   83EMI    H0C 1567   0.559   5.209   1.857  1.1700  0.9663  0.2216
   83EMI    H0D 1568   0.456   5.083   1.940  2.1784 -3.2560  0.7736
   83EMI    N00 1569   0.650   5.035   1.954 -0.1323  0.5369  0.9287
   83EMI    C06 1570   0.830   4.744   1.857 -0.2897 -0.4726  0.7605
   83EMI    H0F 1571   0.938   4.741   1.867 -0.1716  0.6471  0.0133
   83EMI    C0N 1572   0.758   4.617   1.874  0.7052  0.3332 -0.1795
   83EMI    H0O 1573   0.801   4.546   1.804  0.5151  0.8606 -0.8404
   83EMI    H0P 1574   0.760   4.581   1.976  0.7835 -0.9000 -0.6081
   83EMI    H0Q 1575   0.655   4.637   1.848  1.1917  0.8877 -1.8704
   83EMI    N02 1576   0.770   4.860   1.919  0.4205 -0.0316 -0.0704
   83EMI    H0E 1577   0.828   4.785   1.758 -1.7421  0.3916  1.1260
   84EMI    C01 1578   0.890   3.196   1.818  0.2250  0.0184  0.0082
   84EMI    C04 1579   0.923   2.991   1.736 -0.7812  0.0640 -0.3233
   84EMI    C03 1580   0.949   2.985   1.869  0.1344  0.0102 -0.2070
   84EMI    H07 1581   0.870   3.301   1.818 -0.2988 -0.0641  1.4962
   84EMI    H09 1582   0.927   2.925   1.653 -0.5185  0.0435 -0.2956
   84EMI    H08 1583   0.984   2.906   1.933 -0.6604  0.6050  0.9865
   84EMI    C05 1584   0.910   3.155   2.062 -0.1454  0.0981 -0.0939
   84EMI    H0B 1585   0.874   3.257   2.069  0.0806  0.1773 -0.0658
   84EMI    H0C 1586   0.849   3.096   2.128 -1.5654  1.8268  0.2189
   84EMI    H0D 1587   1.010   3.162   2.102 -0.8572  0.3943  1.7623
   84EMI    N00 1588   0.913   3.116   1.919  0.4957 -0.2200 -0.2667
   84EMI    C06 1589   0.892   3.185   1.577 -0.2267 -0.6039  0.3362
   84EMI    H0F 1590   0.836   3.277   1.577  0.2086 -0.2748 -2.0303
   84EMI    C0N 1591   1.034   3.218   1.529  0.2491  0.3694 -0.1812
   84EMI    H0O 1592   1.085   3.288   1.594 -2.3095  1.6644  0.5569
   84EMI    H0P 1593   1.092   3.127   1.514 -2.3663 -1.6844  1.2674
   84EMI    H0Q 1594   1.030   3.257   1.428 -1.5046  1.6110  0.3199
   84EMI    N02 1595   0.891   3.126   1.709 -0.0185  0.0842  0.0163
   84EMI    H0E 1596   0.838   3.125   1.505 -0.0846  0.4448 -0.6831
   85EMI    C01 1597   1.802   0.619   2.748  0.1340 -0.5650 -0.2805
   85EMI    C04 1598   2.010   0.633   2.796  0.7798 -0.2038 -0.2413
   85EMI    C03 1599   1.989   0.708   2.688  0.5664 -0.0354  0.1866
   85EMI    H07 1600   1.697   0.598   2.750  0.3384 -2.0671 -2.0827
   85EMI    H09 1601   2.104   0.622   2.844  0.0522 -0.4066  1.1978
   85EMI    H08 1602   2.061   0.760   2.629  3.1431 -0.2547  2.8562
   85EMI    C05 1603   1.777   0.756   2.545  0.5135  0.6653  0.7190
   85EMI    H0B 1604   1.672   0.761   2.572  0.9463  1.0019  2.4765
   85EMI    H0C 1605   1.807   0.859   2.536  1.1482  0.5961  1.9119
   85EMI    H0D 1606   1.800   0.706   2.452 -0.2480  0.4278  0.6468
   85EMI    N00 1607   1.857   0.688   2.650 -0.0529  0.7356  0.2439
   85EMI    C06 1608   1.860   0.531   2.977 -0.2918  0.3857 -0.3564
   85EMI    H0F 1609   1.757   0.551   3.000 -0.9066 -1.3287 -1.4111
   85EMI    C0N 1610   1.878   0.376   2.982 -0.6282  0.3406 -0.6235
   85EMI    H0O 1611   1.871   0.337   3.083  2.9245  1.8445  0.3531
   85EMI    H0P 1612   1.795   0.337   2.924  0.5913 -1.9261 -0.9478
   85EMI    H0Q 1613   1.967   0.349   2.927 -1.0514 -0.3242 -0.9944
   85EMI    N02 1614   1.889   0.592   2.845 -0.1708  0.1683  0.1629
   85EMI    H0E 1615   1.924   0.576   3.052 -1.5820  0.7725  0.5380
   86EMI    C01 1616   2.012   0.001   2.633  0.6208  0.0894  1.3265
   86EMI    C04 1617   2.105   0.155   2.506 -0.2055 -0.1782 -0.0508
   86EMI    C03 1618   1.981   0.195   2.537 -0.7634  0.0916  0.3985
   86EMI    H07 1619   1.989  -0.078   2.701  0.9592 -0.7604  0.4869
   86EMI    H09 1620   2.181   0.203   2.448 -0.8662 -0.9771 -1.6457
   86EMI    H08 1621   1.933   0.285   2.504 -1.2569  0.1480  1.2428
   86EMI    C05 1622   1.793   0.125   2.680  0.2947  1.0757  0.1132
   86EMI    H0B 1623   1.731   0.152   2.596  1.3911 -1.4642 -1.6543
   86EMI    H0C 1624   1.763   0.032   2.724 -0.3035  0.5907 -1.2507
   86EMI    H0D 1625   1.789   0.200   2.758  0.4700 -0.3378  1.5348
   86EMI    N00 1626   1.930   0.103   2.622  0.4067 -0.0682  0.1738
   86EMI    C06 1627   2.247  -0.052   2.570  0.0233 -0.7281  0.3138
   86EMI    H0F 1628   2.244  -0.127   2.492  2.2447  0.3600 -0.9354
   86EMI    C0N 1629   2.372   0.029   2.538 -0.5438 -0.2717  0.7728
   86EMI    H0O 1630   2.468  -0.021   2.548  0.3639  1.5742  2.0621
   86EMI    H0P 1631   2.382   0.063   2.435  1.5319 -1.1272  0.6344
   86EMI    H0Q 1632   2.389   0.119   2.597 -0.5798  0.5754 -0.4616
   86EMI    N02 1633   2.119   0.028   2.562  0.2059  0.3289 -0.2920
   86EMI    H0E 1634   2.260  -0.086   2.672  1.8021  1.2018  0.7970
   87EMI    C01 1635   2.974   3.561   1.029  0.2809  0.5673 -0.5358
   87EMI    C04 1636   3.063   3.600   0.844  0.1199 -0.0488  1.5019
   87EMI    C03 1637   3.144   3.517   0.903 -0.9844  0.2744 -0.2349
   87EMI    H07 1638   2.905   3.558   1.111 -0.9520 -1.3909 -1.5813
   87EMI    H09 1639   3.068   3.628   0.741 -1.3640 -3.1051  0.4723
   87EMI    H08 1640   3.237   3.475   0.870 -0.3920  1.8615 -0.7043
   87EMI    C05 1641   3.150   3.427   1.143  0.3612 -0.0610  0.4219
   87EMI    H0B 1642   3.073   3.387   1.207 -1.8999  1.6518 -1.0391
   87EMI    H0C 1643   3.204   3.348   1.094 -0.1170 -0.3642  0.3720
   87EMI    H0D 1644   3.221   3.490   1.195 -0.6530 -0.8402  2.8933
   87EMI    N00 1645   3.090   3.502   1.031  0.4714  0.1340  0.4388
   87EMI    C06 1646   2.840   3.715   0.887 -0.8398  0.3512  0.7641
   87EMI    H0F 1647   2.756   3.701   0.953  1.2181 -2.6807  3.0450
   87EMI    C0N 1648   2.889   3.860   0.899 -0.2727 -0.3135 -0.2383
   87EMI    H0O 1649   2.928   3.862   1.000 -3.1457 -2.1705  1.0380
   87EMI    H0P 1650   2.965   3.877   0.823 -0.1509  0.1208 -0.0162
   87EMI    H0Q 1651   2.802   3.921   0.879 -2.2420 -2.8625 -0.0453
   87EMI    N02 1652   2.955   3.621   0.920 -0.3412 -0.1055  0.1408
   87EMI    H0E 1653   2.799   3.683   0.793  1.3836 -1.7753  0.4176
   88EMI    C01 1654   4.504   4.191   3.633  0.0354 -0.8059  0.4549
   88EMI    C04 1655   4.626   4.048   3.524 -0.5738  0.0242 -0.1680
   88EMI    C03 1656   4.704   4.103   3.615  1.0662  0.2895  0.2104
   88EMI    H07 1657   4.425   4.244   3.681  0.1846  1.0210 -1.1950
   88EMI    H09 1658   4.660   3.977   3.452  1.2740  0.2925  0.3952
   88EMI    H08 1659   4.809   4.091   3.633  0.9887 -2.3647 -0.6957
   88EMI    C05 1660   4.662   4.269   3.797  0.2290  0.1470  0.5719
   88EMI    H0B 1661   4.712   4.206   3.869 -3.8752 -2.3353  1.5717
   88EMI    H0C 1662   4.721   4.359   3.782  0.8643 -0.1138  1.4274
   88EMI    H0D 1663   4.569   4.297   3.845 -0.7449 -3.4075  1.0382
   88EMI    N00 1664   4.626   4.196   3.679  0.6445  0.5332  0.0625
   88EMI    C06 1665   4.388   4.086   3.448 -0.4988  0.3240 -0.0449
   88EMI    H0F 1666   4.381   4.173   3.384 -0.3168  1.5036  1.4945
   88EMI    C0N 1667   4.408   3.960   3.358  0.2150 -0.1664  0.8596
   88EMI    H0O 1668   4.420   3.867   3.413  1.2174 -1.1437 -0.9200
   88EMI    H0P 1669   4.323   3.952   3.291 -0.1881  0.7318  1.2511
   88EMI    H0Q 1670   4.495   3.973   3.294 -0.1652 -0.2207  0.3309
   88EMI    N02 1671   4.502   4.107   3.530 -0.2822 -0.2966  0.1746
   88EMI    H0E 1672   4.301   4.067   3.510 -0.8325  1.4464 -0.1425
   89EMI    C01 1673   0.049   0.534   0.198 -0.1968  0.2940 -0.2333
   89EMI    C04 1674   0.016   0.326   0.127 -0.3499  0.0140  0.0382
   89EMI    C03 1675   0.137   0.337   0.193  0.0326  0.3471 -0.0867
   89EMI    H07 1676   0.043   0.639   0.216  0.1655  0.0533  1.4891
   89EMI    H09 1677  -0.032   0.240   0.083 -1.4492  1.2832 -1.3854
   89EMI    H08 1678   0.216   0.272   0.223 -1.7860 -0.5776  3.2598
   89EMI    C05 1679   0.261   0.509   0.320  0.1981  0.4380  0.0781
   89EMI    H0B 1680   0.235   0.543   0.419 -0.4448 -1.1511  0.4900
   89EMI    H0C 1681   0.345   0.444   0.336 -1.2671 -1.9940 -1.4124
   89EMI    H0D 1682   0.311   0.594   0.276  0.4342  0.5402  0.5420
   89EMI    N00 1683   0.150   0.464   0.239  0.3685  0.1986  0.1950
   89EMI    C06 1684  -0.156   0.492   0.076 -0.3926  0.0012  0.2079
   89EMI    H0F 1685  -0.190   0.558   0.154  1.7580  0.5003  0.7729
   89EMI    C0N 1686  -0.151   0.558  -0.062 -0.4104  0.3414  0.2555
   89EMI    H0O 1687  -0.245   0.560  -0.116  1.0049 -1.8500 -2.5511
   89EMI    H0P 1688  -0.119   0.661  -0.050  0.0912  0.2009  0.1759
   89EMI    H0Q 1689  -0.074   0.512  -0.123  0.1063  1.3747  0.1058
   89EMI    N02 1690  -0.027   0.455   0.130  0.4525 -0.1245 -0.1940
   89EMI    H0E 1691  -0.232   0.415   0.079 -0.8427  0.4781  1.5884
   90EMI    C01 1692   3.730   2.326   3.868 -0.3455  0.0452  0.3252
   90EMI    C04 1693   3.945   2.270   3.895 -0.9727  0.4842 -0.8396
   90EMI    C03 1694   3.875   2.233   4.003  0.0117  0.3496 -0.7437
   90EMI    H07 1695   3.643   2.374   3.828 -0.3675  0.0284  0.3533
   90EMI    H09 1696   4.045   2.256   3.860 -0.6432 -1.2166  0.6313
   90EMI    H08 1697   3.900   2.181   4.093 -1.2135  1.0699  0.0414
   90EMI    C05 1698   3.631   2.225   4.071  0.3038  0.1564 -0.5407
   90EMI    H0B 1699   3.539   2.235   4.014 -0.2035  1.7719  0.4876
   90EMI    H0C 1700   3.643   2.120   4.093 -0.1174  0.5045  1.5578
   90EMI    H0D 1701   3.640   2.283   4.161  3.2123  0.3792 -0.8775
   90EMI    N00 1702   3.740   2.264   3.983 -0.4199  0.2383 -0.2848
   90EMI    C06 1703   3.894   2.416   3.708  0.0399  0.1500 -0.1365
   90EMI    H0F 1704   3.822   2.392   3.631 -0.1005  2.7139 -0.8860
   90EMI    C0N 1705   3.916   2.565   3.727  0.2136  0.9897  0.0922
   90EMI    H0O 1706   4.013   2.579   3.774 -0.3730  1.7029  1.1293
   90EMI    H0P 1707   3.923   2.621   3.635 -0.3218  1.1168  0.1275
   90EMI    H0Q 1708   3.836   2.607   3.787 -0.0071 -0.0077  0.5297
   90EMI    N02 1709   3.853   2.342   3.827 -0.6060 -1.0366  0.4419
   90EMI    H0E 1710   3.993   2.379   3.683  0.6896  2.0964 -0.5886
   91EMI    C01 1711   2.908   0.257   1.286  0.1136 -0.6169 -0.3465
   91EMI    C04 1712   2.911   0.410   1.443 -0.8250  0.5310  0.2030
   91EMI    C03 1713   2.991   0.308   1.480 -0.1818 -0.9666  0.1420
   91EMI    H07 1714   2.894   0.198   1.198  2.1028 -0.2673 -0.9470
   91EMI    H09 1715   2.886   0.500   1.496 -1.2954 -1.4856  3.7087
   91EMI    H08 1716   3.053   0.297   1.566  2.7215 -0.2278 -1.7279
   91EMI    C05 1717   3.060   0.094   1.371  0.3507  0.3909  0.3179
   91EMI    H0B 1718   3.017   0.037   1.452  0.0203  0.0574 -0.0850
   91EMI    H0C 1719   3.036   0.043   1.279  2.9425 -1.1373  0.4001
   91EMI    H0D 1720   3.166   0.107   1.388  0.7902 -1.2963 -0.8518
   91EMI    N00 1721   2.992   0.219   1.376 -0.0998  0.8864 -0.6854
   91EMI    C06 1722   2.741   0.440   1.254 -0.3654  0.4498  0.3401
   91EMI    H0F 1723   2.722   0.389   1.161  0.9958  2.6221 -1.2285
   91EMI    C0N 1724   2.621   0.479   1.330  0.0849 -0.2101  0.1274
   91EMI    H0O 1725   2.640   0.572   1.382  3.2683 -1.3727  1.2943
   91EMI    H0P 1726   2.541   0.490   1.258 -0.8124 -2.2315  0.7337
   91EMI    H0Q 1727   2.604   0.397   1.399 -1.6181 -0.8763 -1.0217
   91EMI    N02 1728   2.848   0.366   1.328 -0.3221  0.4733 -0.9245
   91EMI    H0E 1729   2.783   0.535   1.224 -1.2196  0.6938 -0.1226
   92EMI    C01 1730   1.565   1.248   0.181 -0.1107 -0.7859 -0.3881
   92EMI    C04 1731   1.509   1.178   0.374  0.5071 -0.0973  0.3818
   92EMI    C03 1732   1.553   1.070   0.308 -0.2955  0.0767 -0.6449
   92EMI    H07 1733   1.569   1.309   0.093 -0.2288 -0.5680 -0.2447
   92EMI    H09 1734   1.452   1.179   0.465 -3.2129  0.2838 -1.7314
   92EMI    H08 1735   1.548   0.967   0.336  0.7433  0.1909 -0.0010
   92EMI    C05 1736   1.669   1.047   0.079  0.5825 -0.0335  0.4291
   92EMI    H0B 1737   1.745   1.110   0.035 -1.3562  2.0047 -0.1793
   92EMI    H0C 1738   1.714   0.959   0.122  0.2050 -0.1442  0.5991
   92EMI    H0D 1739   1.594   1.021   0.006 -0.5985  2.5227  0.6337
   92EMI    N00 1740   1.605   1.121   0.188 -1.2937  0.9005  0.0853
   92EMI    C06 1741   1.436   1.413   0.315 -0.5329  0.1415 -0.0976
   92EMI    H0F 1742   1.417   1.471   0.226 -0.0379  1.8566  0.8646
   92EMI    C0N 1743   1.298   1.365   0.351 -0.0382  0.4182  0.2847
   92EMI    H0O 1744   1.227   1.446   0.365 -0.8977 -0.0985 -0.8605
   92EMI    H0P 1745   1.254   1.297   0.278 -0.5083  1.1501 -0.1235
   92EMI    H0Q 1746   1.293   1.318   0.449 -0.9047 -1.5640 -0.6426
   92EMI    N02 1747   1.519   1.292   0.297 -0.3873 -0.1830  0.0171
   92EMI    H0E 1748   1.469   1.479   0.394  1.0470  0.4104 -0.9447
   93EMI    C01 1749   1.557   1.736   1.727 -0.6307  0.5051  0.2470
   93EMI    C04 1750   1.452   1.556   1.786 -0.0890 -0.4959 -0.5415
   93EMI    C03 1751   1.562   1.565   1.866 -0.2744  0.1069  0.3308
   93EMI    H07 1752   1.585   1.824   1.673  0.6795 -0.2228 -0.3140
   93EMI    H09 1753   1.370   1.488   1.789 -0.7306  0.2905  1.2721
   93EMI    H08 1754   1.591   1.504   1.948 -0.2704 -1.9283 -1.0964
   93EMI    C05 1755   1.737   1.732   1.897 -0.1802  0.3749  0.1159
   93EMI    H0B 1756   1.724   1.716   2.003  1.5130  1.4755  0.5265
   93EMI    H0C 1757   1.830   1.683   1.871 -1.9299 -3.6451  0.5859
   93EMI    H0D 1758   1.731   1.838   1.881  0.4125  0.7508  2.0675
   93EMI    N00 1759   1.630   1.675   1.823 -0.3316 -0.3956  0.6219
   93EMI    C06 1760   1.356   1.694   1.606  0.9464 -0.6161  0.7886
   93EMI    H0F 1761   1.382   1.787   1.558 -1.2484 -1.0608 -1.4931
   93EMI    C0N 1762   1.351   1.583   1.506 -0.0249  0.5498 -0.0921
   93EMI    H0O 1763   1.325   1.493   1.562  0.0058 -0.8953 -2.2758
   93EMI    H0P 1764   1.279   1.592   1.426 -0.4785 -0.5142  0.1788
   93EMI    H0Q 1765   1.442   1.564   1.451 -0.4767 -0.7968 -0.4162
   93EMI    N02 1766   1.452   1.667   1.707 -0.3017  0.2791 -0.2580
   93EMI    H0E 1767   1.259   1.708   1.652  1.0451  1.4663  0.4325
   94EMI    C01 1768   2.181   0.363   3.139 -0.2332  0.0888  0.9341
   94EMI    C04 1769   2.208   0.581   3.144  0.3669  0.0420 -0.5928
   94EMI    C03 1770   2.134   0.544   3.250  0.0146  0.4103 -0.0732
   94EMI    H07 1771   2.192   0.259   3.119  1.1365  0.3790  0.0731
   94EMI    H09 1772   2.244   0.676   3.113 -0.9004  1.2443  1.3973
   94EMI    H08 1773   2.089   0.603   3.327  1.0831  0.6327  0.3898
   94EMI    C05 1774   2.029   0.318   3.317  0.4980 -0.9689  0.4530
   94EMI    H0B 1775   2.048   0.213   3.304 -0.1625 -1.2140  1.3738
   94EMI    H0C 1776   2.048   0.346   3.419  1.6879 -0.5407  0.1280
   94EMI    H0D 1777   1.924   0.337   3.296  1.1536  1.0247 -1.4698
   94EMI    N00 1778   2.112   0.406   3.240  0.6683 -0.3668  0.4324
   94EMI    C06 1779   2.342   0.453   2.973 -0.2836 -0.0463  0.2822
   94EMI    H0F 1780   2.437   0.489   3.009 -0.1341 -0.0363 -0.1200
   94EMI    C0N 1781   2.371   0.304   2.948  0.7306 -0.3966  0.0519
   94EMI    H0O 1782   2.450   0.309   2.874  0.0214  0.4387 -0.6825
   94EMI    H0P 1783   2.392   0.248   3.038  0.7249 -0.2693  0.1329
   94EMI    H0Q 1784   2.286   0.255   2.902  0.3985 -0.2523  0.5000
   94EMI    N02 1785   2.245   0.464   3.080  0.9877 -0.5658 -0.1576
   94EMI    H0E 1786   2.312   0.500   2.881 -1.2719 -0.5037  0.3548
   95EMI    C01 1787   1.035   1.439   3.107  0.1436 -0.7062 -0.2268
   95EMI    C04 1788   1.153   1.382   2.937  0.1031 -0.8092 -0.0201
   95EMI    C03 1789   1.185   1.505   2.973 -0.2298 -0.3019  0.8403
   95EMI    H07 1790   0.951   1.451   3.173  0.3668 -0.0872 -0.0421
   95EMI    H09 1791   1.202   1.319   2.866  1.2983 -0.0274  0.0825
   95EMI    H08 1792   1.267   1.566   2.942  0.4432 -1.3091  0.5618
   95EMI    C05 1793   1.121   1.673   3.143 -0.6826  0.3351 -0.2555
   95EMI    H0B 1794   1.163   1.664   3.242 -1.2855 -2.6422 -0.1983
   95EMI    H0C 1795   1.159   1.751   3.079 -2.5112  0.6428 -1.0299
   95EMI    H0D 1796   1.020   1.709   3.160 -0.5989  0.6311 -0.3724
   95EMI    N00 1797   1.118   1.537   3.083  0.4060  0.2608  0.4378
   95EMI    C06 1798   0.982   1.208   3.019  0.1505 -0.1208 -0.3301
   95EMI    H0F 1799   0.881   1.234   3.046  1.2012  2.3325  1.6200
   95EMI    C0N 1800   0.978   1.161   2.875 -0.3115 -0.0190  0.3499
   95EMI    H0O 1801   1.064   1.105   2.839 -1.5116 -1.0928 -0.9696
   95EMI    H0P 1802   0.897   1.094   2.849 -0.6432 -0.1234  1.6142
   95EMI    H0Q 1803   0.957   1.247   2.812  0.0184 -1.2615 -1.5581
   95EMI    N02 1804   1.060   1.336   3.031 -0.1053 -0.1880  0.2304
   95EMI    H0E 1805   1.021   1.127   3.079 -1.0699 -0.6121 -0.1616
   96EMI    C01 1806   1.227   5.014   4.792  0.4228  0.3447 -0.3760
   96EMI    C04 1807   1.184   4.818   4.713  0.3001 -0.2251  0.3165
   96EMI    C03 1808   1.223   4.796   4.839  0.3215 -0.6152  0.2752
   96EMI    H07 1809   1.224   5.121   4.796 -0.9752  0.3832 -1.6164
   96EMI    H09 1810   1.155   4.745   4.640  0.4556 -2.1097  2.0476
   96EMI    H08 1811   1.248   4.706   4.889  0.9249  0.2572  1.6124
   96EMI    C05 1812   1.309   4.972   5.020 -0.9126  0.8163 -0.0413
   96EMI    H0B 1813   1.229   5.020   5.074  0.6015  1.1759  1.9951
   96EMI    H0C 1814   1.340   4.882   5.071 -0.0264 -0.2495 -2.3079
   96EMI    H0D 1815   1.393   5.039   5.013 -1.8656  1.8669 -2.6464
   96EMI    N00 1816   1.258   4.927   4.889 -0.3495 -0.5472  0.4116
   96EMI    C06 1817   1.128   5.008   4.561  0.1255  0.6818  0.6364
   96EMI    H0F 1818   1.195   5.002   4.477 -1.4205  2.2158 -0.7713
   96EMI    C0N 1819   0.993   4.965   4.507 -0.6100  0.1871 -0.6953
   96EMI    H0O 1820   0.937   5.055   4.482  1.3367  1.6308 -0.0724
   96EMI    H0P 1821   1.006   4.901   4.421 -1.4928 -0.4189 -0.3883
   96EMI    H0Q 1822   0.928   4.921   4.582 -0.2068  1.2133  0.2867
   96EMI    N02 1823   1.182   4.947   4.683  0.2497 -0.8041  0.7925
   96EMI    H0E 1824   1.119   5.111   4.592  1.9790  1.1396 -0.2044
   97EMI    C01 1825   0.438   0.442   2.239 -0.2331  0.4142 -0.0396
   97EMI    C04 1826   0.356   0.547   2.411 -0.3184  0.4553 -0.8909
   97EMI    C03 1827   0.421   0.441   2.462 -0.5233  0.1984  0.4391
   97EMI    H07 1828   0.491   0.411   2.151 -0.9338 -1.3766  0.1166
   97EMI    H09 1829   0.298   0.622   2.460 -1.4061 -0.1147 -1.2954
   97EMI    H08 1830   0.439   0.417   2.565  2.3972  1.6571  0.3870
   97EMI    C05 1831   0.579   0.273   2.362 -0.1088  0.6412 -0.4739
   97EMI    H0B 1832   0.551   0.192   2.297  0.4454 -0.4594  0.6170
   97EMI    H0C 1833   0.677   0.307   2.330  2.1822  0.6961  5.2933
   97EMI    H0D 1834   0.601   0.226   2.457  1.1502 -0.3737 -1.2275
   97EMI    N00 1835   0.475   0.378   2.350  0.7442  0.1783 -0.3054
   97EMI    C06 1836   0.299   0.641   2.175  0.2186  0.6264  0.3193
   97EMI    H0F 1837   0.221   0.693   2.229  0.8610 -0.9437  2.9318
   97EMI    C0N 1838   0.399   0.731   2.108  0.1983 -0.7044  0.2909
   97EMI    H0O 1839   0.476   0.674   2.057 -0.9973 -0.1303 -2.3349
   97EMI    H0P 1840   0.356   0.792   2.029  0.6672 -1.8128 -0.8530
   97EMI    H0Q 1841   0.434   0.815   2.167  0.4800  0.9704 -2.1214
   97EMI    N02 1842   0.364   0.543   2.271  0.7377 -0.2043 -0.4124
   97EMI    H0E 1843   0.247   0.572   2.109 -0.0896  0.4251  0.7636
   98EMI    C01 1844   0.479   4.015   3.462 -0.2027 -0.2959 -0.1370
   98EMI    C04 1845   0.290   4.091   3.534  0.3542 -0.2697  0.3359
   98EMI    C03 1846   0.380   4.186   3.562 -0.5221  0.6384  0.1038
   98EMI    H07 1847   0.551   3.951   3.415 -1.4344 -0.9737 -1.1622
   98EMI    H09 1848   0.184   4.081   3.542  0.2777  0.7053  0.6654
   98EMI    H08 1849   0.376   4.278   3.616 -0.3674  0.5773  0.2217
   98EMI    C05 1850   0.636   4.184   3.532 -0.1784  0.1841 -0.2484
   98EMI    H0B 1851   0.660   4.232   3.438 -0.2041  1.2729  0.2877
   98EMI    H0C 1852   0.621   4.264   3.603 -2.7087 -0.7398  0.3519
   98EMI    H0D 1853   0.704   4.105   3.562 -0.4339  0.1601  0.2686
   98EMI    N00 1854   0.503   4.130   3.520  0.2426  0.0827 -0.8795
   98EMI    C06 1855   0.297   3.870   3.406 -0.5574 -0.3904  0.0393
   98EMI    H0F 1856   0.293   3.880   3.298  0.0129 -1.5366 -0.1029
   98EMI    C0N 1857   0.379   3.747   3.449 -0.2847 -0.5794  0.2883
   98EMI    H0O 1858   0.437   3.762   3.539  0.0029  0.1492 -0.0098
   98EMI    H0P 1859   0.317   3.661   3.471 -0.6523 -0.3175  0.2901
   98EMI    H0Q 1860   0.457   3.717   3.379  2.8626 -0.9057  3.6449
   98EMI    N02 1861   0.351   3.996   3.457  0.1970 -0.6193  0.3619
   98EMI    H0E 1862   0.198   3.854   3.446 -0.9536 -0.1908 -0.8445
   99EMI    C01 1863   2.739   2.369   4.316 -0.4254  0.1717  0.4127
   99EMI    C04 1864   2.900   2.483   4.402 -0.4560  0.0038 -0.3945
   99EMI    C03 1865   2.808   2.566   4.350  0.2049  0.4317 -1.0811
   99EMI    H07 1866   2.690   2.287   4.269 -0.1880 -0.6718  1.5818
   99EMI    H09 1867   2.996   2.511   4.440 -0.4530  2.6546 -2.0563
   99EMI    H08 1868   2.817   2.671   4.338  2.6094  0.3005 -0.9870
   99EMI    C05 1869   2.610   2.531   4.208  0.0312  0.4754  0.0069
   99EMI    H0B 1870   2.653   2.613   4.152  0.2590 -0.5289 -1.3293
   99EMI    H0C 1871   2.584   2.458   4.133  1.2169  2.3554 -2.4258
   99EMI    H0D 1872   2.526   2.562   4.268  0.8028  2.3524  0.2059
   99EMI    N00 1873   2.703   2.491   4.306  0.5344 -0.4240  0.5877
   99EMI    C06 1874   2.912   2.230   4.420 -0.2659 -0.4836 -0.8571
   99EMI    H0F 1875   2.993   2.234   4.492 -2.5982 -0.0693  1.9179
   99EMI    C0N 1876   2.813   2.125   4.466 -0.3934  0.6273  0.1717
   99EMI    H0O 1877   2.869   2.037   4.493 -0.5513  0.7604  0.9342
   99EMI    H0P 1878   2.767   2.157   4.559 -0.2073  0.1283  0.4379
   99EMI    H0Q 1879   2.736   2.080   4.403  1.6179 -2.0627 -0.5500
   99EMI    N02 1880   2.853   2.358   4.379 -0.4077 -0.1042 -0.4314
   99EMI    H0E 1881   2.979   2.191   4.344  0.5857 -1.6278  0.4186
  100EMI    C01 1882   2.986   0.101   4.356 -0.4183  0.7353  0.1935
  100EMI    C04 1883   2.984   0.293   4.254  0.4341 -0.3689 -0.1174
  100EMI    C03 1884   3.090   0.227   4.209  0.0718  0.1170  0.2421
  100EMI    H07 1885   2.954   0.016   4.412  0.9271 -1.1854 -1.7409
  100EMI    H09 1886   2.934   0.381   4.219 -0.0441  0.2266  1.8873
  100EMI    H08 1887   3.156   0.251   4.129  1.2484  2.9264  1.9014
  100EMI    C05 1888   3.190  -0.000   4.243 -0.5887 -0.3096  0.5859
  100EMI    H0B 1889   3.133  -0.068   4.182 -0.4248  1.0933 -1.2210
  100EMI    H0C 1890   3.257   0.043   4.170 -1.8125  1.1851  0.3163
  100EMI    H0D 1891   3.236  -0.050   4.327 -0.8403 -1.2513  0.1831
  100EMI    N00 1892   3.094   0.106   4.275 -0.6960 -0.3453  0.5819
  100EMI    C06 1893   2.790   0.261   4.426  0.0299  0.1593  0.5131
  100EMI    H0F 1894   2.785   0.197   4.514  0.3588 -1.6143 -0.6954
  100EMI    C0N 1895   2.795   0.407   4.470  0.6006 -0.0086  0.5715
  100EMI    H0O 1896   2.896   0.414   4.508  0.9338 -1.9183  0.1521
  100EMI    H0P 1897   2.795   0.477   4.388 -2.7374 -3.1636 -2.4808
  100EMI    H0Q 1898   2.727   0.435   4.550 -0.9385 -1.5234 -0.1279
  100EMI    N02 1899   2.922   0.216   4.352  0.2688  0.2143 -0.2724
  100EMI    H0E 1900   2.701   0.257   4.364  0.0278  3.6399  0.1165
  101EMI    C01 1901   1.398   4.644   1.315 -0.1965 -0.3712 -0.3473
  101EMI    C04 1902   1.587   4.701   1.216  0.1522  0.4036  0.1318
  101EMI    C03 1903   1.503   4.803   1.212 -1.0398 -0.0850  0.2829
  101EMI    H07 1904   1.314   4.598   1.364 -0.9670  2.0563  0.7557
  101EMI    H09 1905   1.684   4.686   1.175  0.3047  1.1373  0.2088
  101EMI    H08 1906   1.520   4.902   1.177  0.8757 -0.5011 -0.1018
  101EMI    C05 1907   1.271   4.861   1.272 -1.2355 -0.2129 -0.3758
  101EMI    H0B 1908   1.307   4.963   1.280  1.0279 -0.9224 -0.8441
  101EMI    H0C 1909   1.240   4.856   1.168  2.6348 -3.8004 -1.6327
  101EMI    H0D 1910   1.194   4.828   1.340  0.2678 -0.5534  1.2071
  101EMI    N00 1911   1.383   4.770   1.272 -0.4046  0.6580 -0.0108
  101EMI    C06 1912   1.574   4.471   1.328 -0.4823  0.2357  0.2778
  101EMI    H0F 1913   1.498   4.396   1.312  0.9714 -1.0804 -0.6442
  101EMI    C0N 1914   1.694   4.432   1.243  0.2711  0.0361  0.4118
  101EMI    H0O 1915   1.674   4.426   1.136 -0.2468 -2.1677  0.5918
  101EMI    H0P 1916   1.767   4.505   1.274 -0.4766  1.2548 -0.5756
  101EMI    H0Q 1917   1.729   4.334   1.273  0.9539  0.0309 -0.3455
  101EMI    N02 1918   1.521   4.603   1.290 -0.4972 -0.3083  0.1291
  101EMI    H0E 1919   1.604   4.476   1.431 -0.7757  1.7041  0.3128
  102EMI    C01 1920   3.315   3.401   2.368  0.0492 -0.9429 -0.6911
  102EMI    C04 1921   3.349   3.282   2.538 -0.2334  0.1626  0.1872
  102EMI    C03 1922   3.445   3.252   2.450  0.4487  0.0304  0.2731
  102EMI    H07 1923   3.276   3.476   2.302  1.4154 -0.7731 -1.3483
  102EMI    H09 1924   3.349   3.244   2.637  0.9195 -1.1678 -0.2778
  102EMI    H08 1925   3.525   3.182   2.459 -1.1441 -1.6083  3.5537
  102EMI    C05 1926   3.505   3.342   2.219  0.5319  0.5378 -0.6699
  102EMI    H0B 1927   3.438   3.286   2.155  0.9892 -2.2265  1.0902
  102EMI    H0C 1928   3.544   3.437   2.188  1.9717 -0.6785 -2.7849
  102EMI    H0D 1929   3.597   3.286   2.225  1.6885  2.1082 -2.5901
  102EMI    N00 1930   3.425   3.335   2.344  0.5006 -0.1387  0.7868
  102EMI    C06 1931   3.134   3.412   2.542 -0.5352  0.8585 -0.5852
  102EMI    H0F 1932   3.073   3.447   2.460 -1.8727  1.8642  0.7936
  102EMI    C0N 1933   3.056   3.285   2.582 -0.0569  0.7569  0.0362
  102EMI    H0O 1934   3.107   3.238   2.666 -0.8458 -0.3626 -0.0933
  102EMI    H0P 1935   2.962   3.300   2.633 -1.4070  0.3404 -2.2274
  102EMI    H0Q 1936   3.043   3.210   2.505 -0.4820  0.0305  0.8053
  102EMI    N02 1937   3.267   3.372   2.489 -0.1475 -1.2875  1.2237
  102EMI    H0E 1938   3.154   3.484   2.620 -0.6118  0.1416  0.1123
  103EMI    C01 1939   3.807   1.596   2.712  0.3687 -0.0505  0.2628
  103EMI    C04 1940   3.759   1.578   2.505  0.9011  0.3893  0.3505
  103EMI    C03 1941   3.669   1.656   2.554  0.0724  0.2377 -0.0307
  103EMI    H07 1942   3.855   1.578   2.805 -0.2832  0.4189  0.7036
  103EMI    H09 1943   3.767   1.543   2.405  2.1749  0.8200  0.2853
  103EMI    H08 1944   3.581   1.700   2.512  0.1573 -0.3542 -0.8473
  103EMI    C05 1945   3.639   1.752   2.791 -0.4942 -0.9918  0.2922
  103EMI    H0B 1946   3.539   1.717   2.813 -0.7905 -0.1907  0.2612
  103EMI    H0C 1947   3.692   1.758   2.885  0.9235  1.1901 -0.5521
  103EMI    H0D 1948   3.638   1.856   2.761 -0.3998 -0.7630  1.0509
  103EMI    N00 1949   3.705   1.672   2.688  0.3016 -0.3930  0.8133
  103EMI    C06 1950   3.967   1.460   2.571  0.5050 -0.4008  0.0905
  103EMI    H0F 1951   4.023   1.453   2.663 -1.4890 -0.7040  1.3419
  103EMI    C0N 1952   3.916   1.323   2.547 -0.1329  0.1041  0.1887
  103EMI    H0O 1953   4.008   1.265   2.559 -1.0612 -1.8067 -1.3966
  103EMI    H0P 1954   3.846   1.301   2.626 -1.0371  1.1738 -0.2984
  103EMI    H0Q 1955   3.878   1.295   2.450 -1.6502 -0.5803  0.9442
  103EMI    N02 1956   3.851   1.545   2.598 -0.1558 -0.2451 -0.4680
  103EMI    H0E 1957   4.037   1.498   2.498  0.3004 -3.1523 -1.6985
  104EMI    C01 1958   4.038   4.638   0.750 -0.9110 -0.1803  0.5503
  104EMI    C04 1959   4.199   4.761   0.675  0.0218  0.1308 -0.3092
  104EMI    C03 1960   4.191   4.763   0.814  0.2301 -0.0516  0.4683
  104EMI    H07 1961   3.953   4.574   0.754 -0.2079 -1.0845  3.9523
  104EMI    H09 1962   4.267   4.806   0.608  0.7517  0.4611  0.6289
  104EMI    H08 1963   4.253   4.821   0.878 -0.2065 -0.2987  1.1223
  104EMI    C05 1964   4.060   4.671   1.004 -0.0994  0.1642  0.4291
  104EMI    H0B 1965   4.138   4.715   1.065  0.0095 -1.0416  1.1754
  104EMI    H0C 1966   3.966   4.723   1.015 -0.8851 -1.3219  0.9839
  104EMI    H0D 1967   4.029   4.571   1.029 -2.2524  0.7037  0.1308
  104EMI    N00 1968   4.091   4.688   0.857  0.1163  0.2767  0.0629
  104EMI    C06 1969   4.058   4.634   0.499  0.5900 -0.2015  0.5254
  104EMI    H0F 1970   4.074   4.533   0.465  1.4898  0.1354 -0.1043
  104EMI    C0N 1971   3.933   4.698   0.444  0.0512  0.0194  0.3233
  104EMI    H0O 1972   3.884   4.766   0.513 -1.2740  0.0037 -0.5601
  104EMI    H0P 1973   3.944   4.766   0.361  0.5767  0.1495  0.4934
  104EMI    H0Q 1974   3.865   4.624   0.405 -1.7010  1.6858  0.0845
  104EMI    N02 1975   4.093   4.677   0.638 -0.1718 -0.1664  0.4762
  104EMI    H0E 1976   4.142   4.679   0.448 -0.0831 -0.1095 -0.5445
  105EMI    C01 1977   4.392   0.845   1.001  0.4712 -0.5133 -0.0786
  105EMI    C04 1978   4.217   0.819   1.122  0.6181 -0.2356 -0.3771
  105EMI    C03 1979   4.311   0.862   1.201  0.3469 -0.6652  0.2693
  105EMI    H07 1980   4.460   0.844   0.918  0.9390  0.8393  0.2650
  105EMI    H09 1981   4.119   0.786   1.151  1.0375 -0.5650  0.7041
  105EMI    H08 1982   4.309   0.876   1.307 -0.0894 -0.8028  0.2838
  105EMI    C05 1983   4.557   0.920   1.164  0.7819 -0.2033 -0.0439
  105EMI    H0B 1984   4.571   0.885   1.265 -0.9973  0.9316  0.6318
  105EMI    H0C 1985   4.630   0.879   1.095  0.4757  3.4125 -2.7590
  105EMI    H0D 1986   4.566   1.027   1.170 -2.7770  0.3069 -1.6105
  105EMI    N00 1987   4.425   0.880   1.120 -0.2377  0.3927 -0.7581
  105EMI    C06 1988   4.193   0.753   0.883 -0.2228 -0.2547 -0.2459
  105EMI    H0F 1989   4.202   0.646   0.897 -0.1493 -0.5630 -2.3530
  105EMI    C0N 1990   4.049   0.805   0.861  0.2075  0.2703 -0.0477
  105EMI    H0O 1991   3.984   0.773   0.941  0.1401  1.4973  0.4040
  105EMI    H0P 1992   4.054   0.912   0.852  0.5591  0.1282 -2.3179
  105EMI    H0Q 1993   4.004   0.774   0.767  1.5546 -0.5716 -0.4483
  105EMI    N02 1994   4.264   0.808   0.997  0.1483 -0.2183 -0.0483
  105EMI    H0E 1995   4.245   0.794   0.798 -0.8447 -0.6851 -0.8436
  106EMI    C01 1996   3.627   0.226   3.812 -1.0463 -0.0742 -0.0710
  106EMI    C04 1997   3.503   0.121   3.950  0.0912 -0.8786 -0.4418
  106EMI    C03 1998   3.480   0.250   3.967 -0.2202  0.0000  0.9315
  106EMI    H07 1999   3.685   0.236   3.722 -1.0098 -3.4607 -0.5635
  106EMI    H09 2000   3.450   0.037   3.987  1.1414 -0.5037  2.1325
  106EMI    H08 2001   3.403   0.294   4.026 -0.9377  1.2296 -0.8645
  106EMI    C05 2002   3.561   0.460   3.866 -0.1200 -0.4734  0.3830
  106EMI    H0B 2003   3.513   0.476   3.770  1.0146 -0.6037 -0.2256
  106EMI    H0C 2004   3.510   0.510   3.947 -0.0579  2.1372 -1.0717
  106EMI    H0D 2005   3.662   0.496   3.857 -0.4453  0.2657 -0.4036
  106EMI    N00 2006   3.562   0.316   3.874  0.2148  0.0607  0.0191
  106EMI    C06 2007   3.629  -0.023   3.787 -0.7609 -0.0018 -0.0637
  106EMI    H0F 2008   3.637  -0.101   3.862 -0.2770 -0.1409 -0.2537
  106EMI    C0N 2009   3.522  -0.051   3.676  0.2016 -0.7394 -0.5007
  106EMI    H0O 2010   3.493  -0.156   3.671 -2.6777 -0.0478  0.0488
  106EMI    H0P 2011   3.428   0.002   3.688  1.4877  1.6184 -0.2387
  106EMI    H0Q 2012   3.568  -0.023   3.582  0.8418 -2.2759 -0.6735
  106EMI    N02 2013   3.596   0.106   3.849  0.3523 -0.5517  0.2102
  106EMI    H0E 2014   3.725  -0.009   3.740  0.0571 -1.3113  1.1576
  107EMI    C01 2015   2.735   3.150   3.868 -0.7034  0.1959  0.1152
  107EMI    C04 2016   2.621   3.218   3.704  0.7379  0.3574 -0.4583
  107EMI    C03 2017   2.584   3.093   3.721  0.5088  0.2960  0.4339
  107EMI    H07 2018   2.791   3.153   3.958  2.0504 -0.1043 -1.4816
  107EMI    H09 2019   2.566   3.282   3.639  0.6203  0.9077  0.1791
  107EMI    H08 2020   2.499   3.039   3.686 -0.8290  1.3189  1.9639
  107EMI    C05 2021   2.627   2.929   3.908 -0.3146  0.3192  1.0981
  107EMI    H0B 2022   2.713   2.867   3.885 -0.5484  0.4242 -0.1106
  107EMI    H0C 2023   2.625   2.958   4.012  0.3449  1.0131  0.9288
  107EMI    H0D 2024   2.528   2.894   3.882  0.8672 -2.2607 -0.3209
  107EMI    N00 2025   2.657   3.050   3.828 -0.5781 -0.3758  0.1670
  107EMI    C06 2026   2.794   3.382   3.788  0.0496 -0.3929  0.5092
  107EMI    H0F 2027   2.826   3.401   3.687 -0.4870  3.4989  0.9067
  107EMI    C0N 2028   2.711   3.491   3.832  0.5299 -0.1426 -0.5062
  107EMI    H0O 2029   2.607   3.460   3.830  0.3021  0.4651  0.5405
  107EMI    H0P 2030   2.740   3.504   3.936  1.2924 -1.8737 -0.4706
  107EMI    H0Q 2031   2.717   3.582   3.774  0.6851  0.8280  0.9646
  107EMI    N02 2032   2.722   3.252   3.782  0.2483 -0.0197  0.4007
  107EMI    H0E 2033   2.885   3.374   3.844  0.0194 -0.5896  0.5298
  108EMI    C01 2034   2.783   3.897   4.079 -0.9338  0.1413 -0.1162
  108EMI    C04 2035   2.854   4.029   4.234 -0.6632  0.0089 -0.3368
  108EMI    C03 2036   2.894   3.911   4.266  0.6689  0.0639  0.2717
  108EMI    H07 2037   2.719   3.867   3.999  1.1409 -0.6035 -1.6119
  108EMI    H09 2038   2.873   4.120   4.287  1.1505 -1.3111  1.4515
  108EMI    H08 2039   2.949   3.877   4.351 -0.3581 -1.9928  0.1925
  108EMI    C05 2040   2.849   3.680   4.191 -0.7793 -0.9773  0.2114
  108EMI    H0B 2041   2.946   3.648   4.155 -0.1215  1.9964 -0.9432
  108EMI    H0C 2042   2.839   3.658   4.296  1.6973 -2.0606  0.3042
  108EMI    H0D 2043   2.764   3.636   4.141 -0.8900 -2.3735  1.5280
  108EMI    N00 2044   2.841   3.823   4.172 -0.4235  0.1314 -0.3278
  108EMI    C06 2045   2.694   4.132   4.061 -0.4051  0.0965 -0.5608
  108EMI    H0F 2046   2.618   4.155   4.133 -0.3541  1.0751 -0.8136
  108EMI    C0N 2047   2.765   4.251   4.004  0.1959  0.4864 -0.0269
  108EMI    H0O 2048   2.809   4.326   4.069  0.4016  1.6211 -1.4173
  108EMI    H0P 2049   2.845   4.206   3.948 -1.3703 -0.6872 -1.4430
  108EMI    H0Q 2050   2.704   4.304   3.932  0.5243  2.7402  1.2481
  108EMI    N02 2051   2.777   4.020   4.121  1.0053 -0.1051 -0.1603
  108EMI    H0E 2052   2.627   4.096   3.985  0.1568 -1.3440 -0.4086
  109EMI    C01 2053   3.022   3.693   1.434  0.9029  0.4906 -0.6418
  109EMI    C04 2054   3.222   3.691   1.354 -0.4900  0.0632  0.0751
  109EMI    C03 2055   3.217   3.597   1.450 -0.2840 -0.0758  0.5239
  109EMI    H07 2056   2.917   3.701   1.446  1.0404  0.3940  0.7527
  109EMI    H09 2057   3.307   3.718   1.296  0.8700  2.6767  3.0307
  109EMI    H08 2058   3.292   3.525   1.473  2.3013  2.4206  0.4594
  109EMI    C05 2059   3.035   3.522   1.608 -0.4039 -0.3387 -0.2481
  109EMI    H0B 2060   2.996   3.433   1.561 -2.2503  0.9941 -1.3607
  109EMI    H0C 2061   3.112   3.492   1.677  0.6163  1.0233 -0.7597
  109EMI    H0D 2062   2.949   3.565   1.657 -0.4774  1.1856 -1.6180
  109EMI    N00 2063   3.093   3.604   1.504  0.5246  0.4884  0.2843
  109EMI    C06 2064   3.051   3.859   1.254 -0.7417 -0.3823 -0.2310
  109EMI    H0F 2065   3.054   3.956   1.301  2.3923  0.3865 -1.7309
  109EMI    C0N 2066   3.142   3.861   1.135 -0.2831 -0.7264  0.2933
  109EMI    H0O 2067   3.250   3.863   1.148 -0.2198 -0.7458 -0.2216
  109EMI    H0P 2068   3.123   3.767   1.085  2.4748 -0.3759 -1.6024
  109EMI    H0Q 2069   3.108   3.942   1.071  0.3431 -0.6827  0.0068
  109EMI    N02 2070   3.100   3.755   1.349  0.5095 -0.8027 -0.3910
  109EMI    H0E 2071   2.952   3.819   1.234 -0.9722 -0.5580  1.1794
  110EMI    C01 2072   4.670   4.112   2.795  0.5043  0.3456  0.3533
  110EMI    C04 2073   4.705   4.286   2.661 -0.9091 -0.4777  0.3046
  110EMI    C03 2074   4.708   4.327   2.786  0.1903 -0.2642 -0.0496
  110EMI    H07 2075   4.651   4.012   2.826  1.1465  0.2248  0.3703
  110EMI    H09 2076   4.718   4.332   2.565 -2.8222  0.0898  0.2694
  110EMI    H08 2077   4.724   4.422   2.832  2.0294 -0.2702 -0.5839
  110EMI    C05 2078   4.671   4.223   3.022  0.8281  0.4737  0.4234
  110EMI    H0B 2079   4.762   4.262   3.066  1.0502  0.0329  0.3612
  110EMI    H0C 2080   4.587   4.288   3.038 -0.0122 -0.8428  1.4987
  110EMI    H0D 2081   4.658   4.119   3.044  2.9644 -0.1845 -1.0287
  110EMI    N00 2082   4.683   4.219   2.871  0.2687  0.2178 -0.0458
  110EMI    C06 2083   4.684   4.074   2.543  0.0029 -0.2324  0.2371
  110EMI    H0F 2084   4.775   4.023   2.513  0.3135  0.1676  0.4816
  110EMI    C0N 2085   4.569   3.975   2.555 -0.3427  0.2526  0.1483
  110EMI    H0O 2086   4.526   3.964   2.456  2.6118  0.3262 -1.2705
  110EMI    H0P 2087   4.599   3.882   2.602 -0.3494  1.3789  2.4786
  110EMI    H0Q 2088   4.491   4.022   2.613  0.2044  0.7674  0.4808
  110EMI    N02 2089   4.693   4.152   2.670  0.2064 -0.1041  0.4510
  110EMI    H0E 2090   4.675   4.143   2.461  0.7941 -0.2921  0.0919
  111EMI    C01 2091   3.387   2.311   2.057 -0.6199 -0.0248 -0.0315
  111EMI    C04 2092   3.538   2.467   2.088  0.3933 -0.4812 -0.1539
  111EMI    C03 2093   3.598   2.348   2.103 -0.3803 -1.3054  0.3915
  111EMI    H07 2094   3.292   2.262   2.057 -0.2084 -0.8516  0.2354
  111EMI    H09 2095   3.579   2.565   2.094 -2.4470  0.7238  1.9121
  111EMI    H08 2096   3.703   2.337   2.120 -0.0325 -0.6779 -1.1941
  111EMI    C05 2097   3.525   2.102   2.067 -0.2426 -0.6510 -0.6612
  111EMI    H0B 2098   3.571   2.059   2.155  1.2334  0.2084 -0.9712
  111EMI    H0C 2099   3.429   2.053   2.056  0.0490 -1.8527  1.5239
  111EMI    H0D 2100   3.593   2.102   1.984 -0.9716  1.3847 -1.3180
  111EMI    N00 2101   3.501   2.250   2.079 -0.2620  0.3071 -0.1085
  111EMI    C06 2102   3.296   2.539   2.095  0.4599  0.0888 -0.2300
  111EMI    H0F 2103   3.254   2.555   1.997 -0.9778 -0.1019  0.3221
  111EMI    C0N 2104   3.178   2.494   2.190 -0.0739 -0.5708  0.2827
  111EMI    H0O 2105   3.079   2.537   2.191  0.1019 -0.0951 -1.3429
  111EMI    H0P 2106   3.158   2.391   2.162 -1.4859  0.0074 -0.9008
  111EMI    H0Q 2107   3.225   2.483   2.288  2.6908 -1.2604 -1.0147
  111EMI    N02 2108   3.402   2.440   2.081 -0.0559  0.4406  0.4636
  111EMI    H0E 2109   3.339   2.630   2.136 -1.2939  1.5679 -1.5058
  112EMI    C01 2110   2.442   0.105   0.969 -0.2889  0.4718 -0.2647
  112EMI    C04 2111   2.262  -0.021   0.958 -0.1955  0.0421 -0.4490
  112EMI    C03 2112   2.247   0.063   1.062 -0.3108 -0.0554 -0.2872
  112EMI    H07 2113   2.530   0.157   0.938 -1.2176  2.9103  0.9117
  112EMI    H09 2114   2.191  -0.088   0.914 -0.9160  0.8655 -0.5753
  112EMI    H08 2115   2.170   0.076   1.134  1.4664 -2.7365  2.3068
  112EMI    C05 2116   2.389   0.242   1.167 -0.6059 -0.3515  0.0140
  112EMI    H0B 2117   2.493   0.272   1.162 -1.4383  2.8189  0.1015
  112EMI    H0C 2118   2.326   0.327   1.147 -0.7451 -0.3284  0.5447
  112EMI    H0D 2119   2.368   0.208   1.268 -1.9360  0.1382 -0.0752
  112EMI    N00 2120   2.363   0.143   1.067  0.3247  0.0408  0.0746
  112EMI    C06 2121   2.454  -0.068   0.799  0.4247 -0.4544 -0.1191
  112EMI    H0F 2122   2.515  -0.149   0.838 -1.1883 -1.1418  1.0975
  112EMI    C0N 2123   2.361  -0.137   0.702 -0.3350 -0.6130  0.3957
  112EMI    H0O 2124   2.297  -0.057   0.666  3.5485  2.5675 -0.1605
  112EMI    H0P 2125   2.413  -0.179   0.617 -0.1731 -2.1855  1.2262
  112EMI    H0Q 2126   2.300  -0.207   0.757 -1.7403  1.5301  1.7507
  112EMI    N02 2127   2.385   0.003   0.902 -0.2817 -0.2180 -0.4647
  112EMI    H0E 2128   2.519  -0.003   0.744  0.0572  0.7892  0.8849
  113EMI    C01 2129   0.935   0.457   1.236 -0.2435  0.0548 -0.6669
  113EMI    C04 2130   0.790   0.344   1.128  0.5258  0.3337  0.1139
  113EMI    C03 2131   0.892   0.261   1.159  0.0701 -0.1057  0.3416
  113EMI    H07 2132   0.983   0.535   1.291  0.1319  0.0411 -0.9686
  113EMI    H09 2133   0.694   0.319   1.088  0.4862  0.7881 -0.0749
  113EMI    H08 2134   0.890   0.155   1.154  1.3216 -0.1942  1.2370
  113EMI    C05 2135   1.117   0.287   1.253 -0.1251 -0.2926 -0.3763
  113EMI    H0B 2136   1.175   0.360   1.307 -0.4123 -0.8721  0.7452
  113EMI    H0C 2137   1.114   0.192   1.304 -0.8088 -0.8101 -1.3495
  113EMI    H0D 2138   1.160   0.268   1.156  1.3543 -2.3815  0.6150
  113EMI    N00 2139   0.987   0.338   1.220 -0.8089  0.0924 -0.3155
  113EMI    C06 2140   0.738   0.594   1.179  0.1787 -0.4786  0.0717
  113EMI    H0F 2141   0.761   0.661   1.098  0.0294 -0.4174  0.0797
  113EMI    C0N 2142   0.594   0.561   1.201  0.5669 -0.5048  0.0374
  113EMI    H0O 2143   0.546   0.658   1.196 -0.4352 -1.0069 -0.2640
  113EMI    H0P 2144   0.556   0.498   1.122  1.1870 -1.6732  0.6277
  113EMI    H0Q 2145   0.578   0.516   1.299  0.6827 -0.2142  0.1900
  113EMI    N02 2146   0.818   0.469   1.180 -0.1476  0.3050 -0.6416
  113EMI    H0E 2147   0.771   0.657   1.260 -0.5826 -0.3174  0.2571
  114EMI    C01 2148   4.455   4.913   4.796 -0.2008 -1.3439  0.2304
  114EMI    C04 2149   4.378   5.032   4.633  0.0745 -0.3279  0.2469
  114EMI    C03 2150   4.507   5.008   4.613  0.1485 -0.6378 -0.0185
  114EMI    H07 2151   4.444   4.866   4.891  0.2025 -0.2727  0.8193
  114EMI    H09 2152   4.312   5.089   4.572 -0.3790  1.1522  2.0153
  114EMI    H08 2153   4.565   5.056   4.537 -1.9315 -0.3464 -1.5122
  114EMI    C05 2154   4.697   4.878   4.720  0.3084  0.2180  0.4868
  114EMI    H0B 2155   4.770   4.956   4.702 -1.9257  2.4240  0.3644
  114EMI    H0C 2156   4.706   4.841   4.821  1.8736 -1.8206 -0.3534
  114EMI    H0D 2157   4.708   4.791   4.657 -0.4538 -0.2112  0.9313
  114EMI    N00 2158   4.557   4.925   4.711  0.2018  0.2559 -0.1269
  114EMI    C06 2159   4.217   4.989   4.821  0.2951 -0.0156  0.0657
  114EMI    H0F 2160   4.148   4.989   4.738  0.0401  0.2617  0.2754
  114EMI    C0N 2161   4.174   4.869   4.907  0.1714 -0.0862  0.0017
  114EMI    H0O 2162   4.257   4.825   4.961  1.7342  2.1626 -0.4213
  114EMI    H0P 2163   4.102   4.896   4.983 -0.8493  0.0442 -0.9938
  114EMI    H0Q 2164   4.136   4.793   4.839  0.1909  0.8364 -1.0786
  114EMI    N02 2165   4.348   4.979   4.754  0.4016 -0.6307  0.5086
  114EMI    H0E 2166   4.214   5.082   4.875  0.4217 -0.1784  0.3563
  115EMI    C01 2167   1.736   2.966   2.987 -0.0894  0.3231  0.3152
  115EMI    C04 2168   1.537   2.879   2.965  0.0072  0.9278  0.4259
  115EMI    C03 2169   1.627   2.781   2.965 -0.1804 -0.2398 -0.5113
  115EMI    H07 2170   1.815   3.036   3.007  1.2709 -0.8834 -0.6409
  115EMI    H09 2171   1.431   2.866   2.960  0.3095 -2.1696  0.2600
  115EMI    H08 2172   1.606   2.678   2.950  0.7671 -0.2050 -2.4328
  115EMI    C05 2173   1.876   2.754   2.998  0.2205  0.7446  0.0821
  115EMI    H0B 2174   1.868   2.689   2.912 -3.1892 -0.8883  1.4203
  115EMI    H0C 2175   1.967   2.811   3.001  0.1304  1.1686 -2.8011
  115EMI    H0D 2176   1.878   2.689   3.085 -2.3871  1.5960  0.8768
  115EMI    N00 2177   1.756   2.834   2.988  0.6904 -0.1800  0.1587
  115EMI    C06 2178   1.546   3.128   2.965 -0.1535 -0.0964  0.4973
  115EMI    H0F 2179   1.619   3.184   3.022  1.8435 -0.7204 -1.3249
  115EMI    C0N 2180   1.518   3.180   2.822 -0.4347  0.2450 -0.9605
  115EMI    H0O 2181   1.413   3.171   2.799 -0.6402  0.3281 -0.0921
  115EMI    H0P 2182   1.535   3.287   2.828  1.8171 -0.1336  0.3456
  115EMI    H0Q 2183   1.575   3.135   2.742  0.6125  2.8531 -1.8129
  115EMI    N02 2184   1.607   2.998   2.971 -0.0714 -0.2632 -0.2798
  115EMI    H0E 2185   1.452   3.120   3.017  0.0109 -1.9945  0.5749
  116EMI    C01 2186   3.173   1.856   4.048  0.5450 -0.4030  0.5881
  116EMI    C04 2187   3.120   1.684   4.177  0.4681 -0.9021 -0.0934
  116EMI    C03 2188   3.199   1.644   4.077 -0.2900  0.1420 -0.5680
  116EMI    H07 2189   3.188   1.954   4.011  0.2512 -0.6889 -0.3100
  116EMI    H09 2190   3.080   1.632   4.262  0.4718 -1.7737 -0.6204
  116EMI    H08 2191   3.223   1.541   4.063 -1.6173 -1.0725  4.2399
  116EMI    C05 2192   3.309   1.745   3.883  0.3972  0.1800 -0.1319
  116EMI    H0B 2193   3.412   1.774   3.898  0.4642 -0.8803  1.7438
  116EMI    H0C 2194   3.308   1.649   3.833  2.8257 -0.1022  0.2240
  116EMI    H0D 2195   3.278   1.826   3.819  2.3346  2.0939  1.2095
  116EMI    N00 2196   3.225   1.749   3.997  0.0814  0.0080 -0.1117
  116EMI    C06 2197   3.039   1.923   4.248 -0.1679  0.8218  0.5770
  116EMI    H0F 2198   2.935   1.933   4.218  0.3395  2.5119 -0.7892
  116EMI    C0N 2199   3.072   1.895   4.396  0.8558 -0.2086  0.1718
  116EMI    H0O 2200   3.086   1.991   4.445 -0.2075  0.5263 -0.8966
  116EMI    H0P 2201   2.992   1.840   4.444  1.6314 -0.3496  1.3526
  116EMI    H0Q 2202   3.166   1.843   4.398  2.0775  1.7758 -1.4605
  116EMI    N02 2203   3.102   1.824   4.153 -0.7205 -0.5583 -0.0755
  116EMI    H0E 2204   3.079   2.021   4.227  0.2293  0.6165  0.3660
  117EMI    C01 2205   2.161   4.187   0.524  0.3644  0.7542  0.6969
  117EMI    C04 2206   2.350   4.195   0.619 -0.3117 -0.5311  0.8312
  117EMI    C03 2207   2.357   4.095   0.529 -0.1722  0.3087 -0.3248
  117EMI    H07 2208   2.065   4.220   0.488  1.6530  0.8759 -3.1074
  117EMI    H09 2209   2.423   4.234   0.687 -2.1055  0.0105  2.5494
  117EMI    H08 2210   2.438   4.029   0.510 -1.2777 -1.2561  0.1941
  117EMI    C05 2211   2.180   3.990   0.373  0.3954 -0.0995  1.0182
  117EMI    H0B 2212   2.151   3.892   0.406  1.1224 -0.1244  1.5895
  117EMI    H0C 2213   2.099   4.027   0.310  0.5437  1.0369  1.4694
  117EMI    H0D 2214   2.261   3.987   0.302 -1.5378  1.7229 -1.4633
  117EMI    N00 2215   2.231   4.091   0.469  0.5718  0.4627  0.4884
  117EMI    C06 2216   2.186   4.377   0.684 -0.1118 -0.7990 -0.1714
  117EMI    H0F 2217   2.149   4.350   0.782  1.2876  0.4005  0.7217
  117EMI    C0N 2218   2.284   4.489   0.678 -0.1275 -0.1870 -0.4054
  117EMI    H0O 2219   2.247   4.582   0.719 -0.4305 -0.8498  0.8752
  117EMI    H0P 2220   2.380   4.461   0.721 -1.0984 -0.4912  1.6928
  117EMI    H0Q 2221   2.306   4.509   0.574 -0.0275  1.3936 -0.1061
  117EMI    N02 2222   2.227   4.252   0.614 -0.1823  0.1450 -0.2075
  117EMI    H0E 2223   2.102   4.408   0.624 -0.5428 -0.1640  0.7352
  118EMI    C01 2224   0.792   3.354   4.424  0.0893  0.5223  0.2342
  118EMI    C04 2225   0.775   3.530   4.300  0.5757  0.6131  0.0887
  118EMI    C03 2226   0.899   3.526   4.358  0.0798 -0.4107  1.2205
  118EMI    H07 2227   0.767   3.257   4.461 -2.0906  1.4036  1.2315
  118EMI    H09 2228   0.740   3.595   4.223  2.8781 -0.3855 -1.9666
  118EMI    H08 2229   0.980   3.595   4.348  2.0360 -2.5399  1.5363
  118EMI    C05 2230   1.013   3.391   4.532  0.6526  0.7453 -0.1912
  118EMI    H0B 2231   1.020   3.464   4.612  2.0824 -2.8431  3.3131
  118EMI    H0C 2232   1.000   3.293   4.575  0.2191 -0.4590 -2.8576
  118EMI    H0D 2233   1.108   3.383   4.483  2.6876 -3.9674  3.6133
  118EMI    N00 2234   0.902   3.422   4.443 -0.3211  0.2094  0.3338
  118EMI    C06 2235   0.580   3.368   4.287 -0.1654 -0.4969  0.4352
  118EMI    H0F 2236   0.561   3.277   4.342  1.5110 -1.5505 -0.6416
  118EMI    C0N 2237   0.470   3.470   4.301 -0.0947 -0.5659  0.1815
  118EMI    H0O 2238   0.442   3.488   4.404 -1.8401 -0.1363 -0.3389
  118EMI    H0P 2239   0.503   3.559   4.248  0.5234 -0.9618 -0.1134
  118EMI    H0Q 2240   0.376   3.444   4.255 -0.9254  0.2172  1.3787
  118EMI    N02 2241   0.713   3.416   4.340 -0.2755  0.0020  0.4567
  118EMI    H0E 2242   0.592   3.340   4.183  1.2152  2.4329 -0.2889
  119EMI    C01 2243   4.465   0.057   3.877 -0.9073 -0.3127  0.5515
  119EMI    C04 2244   4.356   0.233   3.800 -1.3861 -0.3034  0.5390
  119EMI    C03 2245   4.492   0.249   3.773  0.7641 -0.7912  0.0370
  119EMI    H07 2246   4.482  -0.034   3.930 -0.5392  0.1226  1.1851
  119EMI    H09 2247   4.274   0.299   3.783  1.0410  2.6522 -0.7264
  119EMI    H08 2248   4.542   0.328   3.721 -1.0194  1.1447  1.0798
  119EMI    C05 2249   4.707   0.119   3.812  0.0033 -0.4485 -0.3584
  119EMI    H0B 2250   4.765   0.210   3.819 -1.1627  0.3497 -0.6528
  119EMI    H0C 2251   4.741   0.055   3.892 -0.4663  0.1455  0.3283
  119EMI    H0D 2252   4.732   0.055   3.729  3.2918 -0.9403  0.8737
  119EMI    N00 2253   4.558   0.145   3.826 -0.5983  0.1069  0.0578
  119EMI    C06 2254   4.215   0.050   3.905  0.9524 -0.4208  0.7343
  119EMI    H0F 2255   4.141   0.122   3.936  0.4775  0.2560 -1.7546
  119EMI    C0N 2256   4.154  -0.012   3.784 -0.2689  0.0884  0.1433
  119EMI    H0O 2257   4.217  -0.086   3.735 -0.8559 -1.1728  1.2174
  119EMI    H0P 2258   4.059  -0.059   3.807 -0.0936 -0.7759 -0.8055
  119EMI    H0Q 2259   4.131   0.052   3.700  1.6909 -0.7294 -1.1063
  119EMI    N02 2260   4.342   0.112   3.861 -0.0139 -0.4542  0.4810
  119EMI    H0E 2261   4.236  -0.011   3.992 -0.3098  0.3656  1.6343
  120EMI    C01 2262   1.912   1.402   4.151  0.5779 -0.5713 -0.3796
  120EMI    C04 2263   1.933   1.540   3.989  0.1175 -0.3505 -0.7839
  120EMI    C03 2264   1.997   1.430   3.949 -0.0101  0.3333  0.4240
  120EMI    H07 2265   1.904   1.374   4.254  1.0112  0.9941  0.1155
  120EMI    H09 2266   1.920   1.623   3.922 -0.2309 -0.1764 -0.5037
  120EMI    H08 2267   2.035   1.396   3.855 -1.0333 -0.5297  0.3002
  120EMI    C05 2268   2.054   1.209   4.069  0.0652  0.2498 -0.2781
  120EMI    H0B 2269   2.132   1.212   3.994  1.0687  0.0668  0.7293
  120EMI    H0C 2270   2.091   1.197   4.169 -1.4467  3.0898  0.7534
  120EMI    H0D 2271   1.979   1.133   4.054 -0.5045  0.4159  1.4539
  120EMI    N00 2272   1.991   1.346   4.060  0.6539  0.2860  0.2896
  120EMI    C06 2273   1.780   1.628   4.170  0.1054 -0.1971  0.3513
  120EMI    H0F 2274   1.688   1.630   4.113 -0.5761  0.7552  1.4473
  120EMI    C0N 2275   1.766   1.619   4.321  0.2297  0.0756  0.2147
  120EMI    H0O 2276   1.866   1.617   4.363  0.6988  1.0104 -0.7959
  120EMI    H0P 2277   1.700   1.702   4.345 -0.0079 -0.4430  1.3858
  120EMI    H0Q 2278   1.711   1.531   4.350 -0.2802  0.1892 -0.3902
  120EMI    N02 2279   1.866   1.520   4.107  0.0243  0.9206  0.0563
  120EMI    H0E 2280   1.834   1.719   4.149  0.8785 -0.4850  1.0372
  121EMI    C01 2281   3.174   0.615   1.947 -0.6952 -0.5521  0.1610
  121EMI    C04 2282   3.393   0.634   1.958  0.0209  0.0339 -0.4306
  121EMI    C03 2283   3.341   0.759   1.962  0.4565 -0.0048  0.5821
  121EMI    H07 2284   3.076   0.572   1.946 -0.6138 -0.7342 -0.5360
  121EMI    H09 2285   3.496   0.605   1.953 -0.5894 -2.0577 -2.7582
  121EMI    H08 2286   3.390   0.853   1.964  0.6587  0.0929 -2.8734
  121EMI    C05 2287   3.101   0.848   1.941 -0.0250 -0.4751 -0.2610
  121EMI    H0B 2288   3.061   0.876   2.037 -0.1690  2.8708 -1.1501
  121EMI    H0C 2289   3.136   0.941   1.897 -0.2666 -0.6397 -0.8168
  121EMI    H0D 2290   3.013   0.823   1.883 -0.3493  2.4248 -1.1902
  121EMI    N00 2291   3.203   0.744   1.943  0.1309  0.7421 -0.2530
  121EMI    C06 2292   3.300   0.397   1.962  0.1069 -0.6973  0.5269
  121EMI    H0F 2293   3.336   0.374   1.863  1.1880 -0.4136  0.8362
  121EMI    C0N 2294   3.387   0.344   2.083  0.1793  0.3429 -0.7101
  121EMI    H0O 2295   3.393   0.236   2.089 -2.8639 -0.0445 -2.3488
  121EMI    H0P 2296   3.488   0.382   2.091  0.6912 -1.2598  0.9042
  121EMI    H0Q 2297   3.346   0.367   2.181  2.3587 -1.8702  0.8259
  121EMI    N02 2298   3.290   0.544   1.957 -0.3239 -0.6208  0.6938
  121EMI    H0E 2299   3.201   0.358   1.983 -1.7891  2.0016 -2.5477
  122EMI    C01 2300   3.541   3.744   4.592  0.4562  0.0084  0.2640
  122EMI    C04 2301   3.734   3.653   4.539 -0.0292  0.4051 -0.4620
  122EMI    C03 2302   3.741   3.786   4.510 -0.0227 -0.0814  0.1417
  122EMI    H07 2303   3.444   3.762   4.632 -0.7956  0.5099 -2.7088
  122EMI    H09 2304   3.809   3.577   4.536 -1.1841 -0.7418 -1.2295
  122EMI    H08 2305   3.819   3.852   4.479  0.5172  0.9796  3.3417
  122EMI    C05 2306   3.578   3.979   4.526 -0.0052 -0.3486  0.3176
  122EMI    H0B 2307   3.515   3.983   4.438  1.6244  3.1119 -0.8977
  122EMI    H0C 2308   3.528   4.019   4.614 -2.1991 -0.6668 -0.7019
  122EMI    H0D 2309   3.658   4.041   4.487 -1.0807 -0.1223 -1.6686
  122EMI    N00 2310   3.617   3.838   4.532  1.0528 -0.4450 -0.1769
  122EMI    C06 2311   3.551   3.503   4.646 -0.7502 -0.0627  0.1176
  122EMI    H0F 2312   3.635   3.466   4.703  0.9370  1.7306 -1.1376
  122EMI    C0N 2313   3.426   3.525   4.736  0.1273 -0.9526 -0.2913
  122EMI    H0O 2314   3.331   3.539   4.686  0.4064 -0.4830 -0.6990
  122EMI    H0P 2315   3.429   3.436   4.798 -0.0152 -1.1937 -0.6213
  122EMI    H0Q 2316   3.454   3.611   4.795  0.7991 -2.6734  2.0643
  122EMI    N02 2317   3.605   3.629   4.593 -0.6211 -0.2574 -0.1440
  122EMI    H0E 2318   3.536   3.442   4.558  3.3919 -0.9481 -0.1769
  123EMI    C01 2319   0.915   2.092   1.904 -0.1437  0.3873  0.6754
  123EMI    C04 2320   1.037   2.247   1.815 -0.1579  0.4097 -0.3376
  123EMI    C03 2321   1.092   2.130   1.779 -0.2613 -0.0520 -0.3842
  123EMI    H07 2322   0.841   2.034   1.954  0.0603 -0.4900 -0.0037
  123EMI    H09 2323   1.082   2.339   1.783 -0.3888  0.1190 -1.5255
  123EMI    H08 2324   1.182   2.102   1.729  0.5689  1.8462 -0.0445
  123EMI    C05 2325   1.043   1.893   1.826  0.3028  0.9537  0.4467
  123EMI    H0B 2326   0.979   1.836   1.891  0.1382  1.0745  0.3906
  123EMI    H0C 2327   1.035   1.856   1.725  0.3769  0.3839  0.6467
  123EMI    H0D 2328   1.143   1.880   1.865 -1.2764 -0.4681  4.6042
  123EMI    N00 2329   1.016   2.031   1.840 -0.3185  0.1184 -0.4031
  123EMI    C06 2330   0.840   2.334   1.944 -0.3239  0.0467 -0.1584
  123EMI    H0F 2331   0.767   2.304   2.018 -1.7955 -1.2412 -2.0327
  123EMI    C0N 2332   0.910   2.446   2.029  0.1405 -0.3391 -0.3647
  123EMI    H0O 2333   0.954   2.407   2.120  0.7707 -1.5693 -1.1651
  123EMI    H0P 2334   0.992   2.495   1.977  0.4175  0.7581  1.0533
  123EMI    H0Q 2335   0.836   2.519   2.060  0.9195  0.0236  0.7114
  123EMI    N02 2336   0.925   2.225   1.891 -0.7335 -0.8280  0.1156
  123EMI    H0E 2337   0.790   2.386   1.863 -0.3377  0.4318  0.0927
  124EMI    C01 2338   0.509   1.293   3.581 -0.6545 -0.2806  0.3477
  124EMI    C04 2339   0.715   1.284   3.490  0.0823  0.8320  0.6809
  124EMI    C03 2340   0.682   1.410   3.509  0.1046  0.5036  0.2294
  124EMI    H07 2341   0.416   1.271   3.629 -1.4390 -0.4451 -1.1888
  124EMI    H09 2342   0.809   1.245   3.456 -0.9046 -0.0941 -1.0863
  124EMI    H08 2343   0.740   1.496   3.486  2.6851 -1.0941  0.3559
  124EMI    C05 2344   0.479   1.541   3.580  0.0600 -0.4379 -0.4596
  124EMI    H0B 2345   0.372   1.527   3.587 -0.3131 -1.4440 -4.9724
  124EMI    H0C 2346   0.516   1.576   3.675  0.5365 -2.8722  0.3206
  124EMI    H0D 2347   0.508   1.615   3.507 -0.2366  0.7933  0.6446
  124EMI    N00 2348   0.554   1.416   3.561 -0.0410 -0.5942  0.2357
  124EMI    C06 2349   0.594   1.060   3.554  0.0106 -0.0435  0.2600
  124EMI    H0F 2350   0.601   1.024   3.452  0.2411 -1.1603  0.6591
  124EMI    C0N 2351   0.686   1.005   3.656  0.1236  0.3599 -0.0096
  124EMI    H0O 2352   0.783   1.053   3.663 -1.1221  2.9329  0.9475
  124EMI    H0P 2353   0.647   1.020   3.756 -0.4010 -1.9709  0.1989
  124EMI    H0Q 2354   0.698   0.898   3.643 -1.2093  0.0209  1.2441
  124EMI    N02 2355   0.604   1.209   3.535  0.0289 -0.0062  0.1460
  124EMI    H0E 2356   0.492   1.032   3.573  0.7246 -2.2989  1.1051
  125EMI    C01 2357   0.474   3.851   0.728  0.3874 -0.4684 -0.1499
  125EMI    C04 2358   0.689   3.835   0.761  0.1604 -0.2983  0.0065
  125EMI    C03 2359   0.638   3.885   0.871  0.4485  0.3520 -0.0301
  125EMI    H07 2360   0.374   3.845   0.691  0.1149  1.1969  0.2551
  125EMI    H09 2361   0.795   3.831   0.749  0.2655  0.8330  0.4211
  125EMI    H08 2362   0.681   3.904   0.967  1.1637  0.0123 -0.2810
  125EMI    C05 2363   0.404   3.937   0.946 -0.0221  0.1441 -0.4956
  125EMI    H0B 2364   0.417   4.042   0.970  0.7052  0.0607 -0.5234
  125EMI    H0C 2365   0.304   3.920   0.909 -0.3116  2.8123 -1.1555
  125EMI    H0D 2366   0.406   3.880   1.038  0.3152  2.5621  1.0877
  125EMI    N00 2367   0.499   3.895   0.847  0.7044  0.1907 -0.1267
  125EMI    C06 2368   0.595   3.760   0.526 -0.2984  0.1385 -0.1206
  125EMI    H0F 2369   0.578   3.845   0.460  1.9970  1.1856  0.5256
  125EMI    C0N 2370   0.724   3.710   0.475 -0.7004  0.2748  0.2231
  125EMI    H0O 2371   0.747   3.623   0.536  1.3130 -0.1528 -1.0259
  125EMI    H0P 2372   0.720   3.675   0.372 -0.0036  0.8755 -0.0169
  125EMI    H0Q 2373   0.797   3.790   0.476 -0.9617  0.5334 -0.4719
  125EMI    N02 2374   0.588   3.805   0.666  1.0533  0.0196 -0.0941
  125EMI    H0E 2375   0.527   3.677   0.513 -0.1572 -0.4096  2.1828
  126EMI    C01 2376   2.534   4.054   1.652 -0.2781 -1.3982  0.0648
  126EMI    C04 2377   2.591   4.239   1.747 -0.6713  0.8142 -0.1798
  126EMI    C03 2378   2.636   4.135   1.822 -0.5227  0.5078 -0.5109
  126EMI    H07 2379   2.499   3.995   1.570 -0.1961 -1.5868  0.1651
  126EMI    H09 2380   2.585   4.344   1.764 -0.4606  0.6594  0.9895
  126EMI    H08 2381   2.687   4.141   1.916  1.3338  0.4520 -1.4850
  126EMI    C05 2382   2.637   3.878   1.792  0.0960 -0.6348 -0.6486
  126EMI    H0B 2383   2.548   3.821   1.768  0.2069 -1.3160  0.4814
  126EMI    H0C 2384   2.726   3.841   1.743  0.1484  0.1400 -1.1538
  126EMI    H0D 2385   2.662   3.867   1.896  0.3110 -1.2457 -0.7614
  126EMI    N00 2386   2.602   4.016   1.755 -0.6384 -0.1448  0.1524
  126EMI    C06 2387   2.465   4.266   1.529  0.3656 -0.0519 -0.1048
  126EMI    H0F 2388   2.382   4.313   1.579  1.1606  0.3151  0.8993
  126EMI    C0N 2389   2.545   4.355   1.443 -0.2219 -0.3020 -0.3284
  126EMI    H0O 2390   2.500   4.382   1.348 -0.2980 -0.2470 -0.2764
  126EMI    H0P 2391   2.578   4.441   1.499  0.3238 -0.8630  0.2277
  126EMI    H0Q 2392   2.633   4.300   1.409 -0.0277 -0.0437 -0.2420
  126EMI    N02 2393   2.532   4.185   1.637 -0.4904  0.0635 -0.5373
  126EMI    H0E 2394   2.435   4.196   1.453 -0.7182  0.1142  0.1642
  127EMI    C01 2395   0.856   2.668   1.164  0.4040 -0.5938 -0.2379
  127EMI    C04 2396   0.929   2.540   1.010  0.5100  0.2485  0.8339
  127EMI    C03 2397   0.878   2.648   0.951  0.0847 -0.6032 -0.2494
  127EMI    H07 2398   0.826   2.710   1.258 -0.5586  0.3964 -0.9686
  127EMI    H09 2399   0.975   2.450   0.976 -0.2219 -0.3451  1.3810
  127EMI    H08 2400   0.868   2.668   0.846  0.2822 -0.2958 -0.2107
  127EMI    C05 2401   0.836   2.881   1.031 -0.4048  0.5718 -0.9235
  127EMI    H0B 2402   0.736   2.912   1.058 -0.4495  0.7262 -1.2648
  127EMI    H0C 2403   0.908   2.930   1.095 -0.4501 -0.9096  0.3112
  127EMI    H0D 2404   0.861   2.903   0.928 -1.1749 -1.0447 -1.4930
  127EMI    N00 2405   0.850   2.735   1.054 -0.1970 -0.4144 -0.3578
  127EMI    C06 2406   0.961   2.451   1.251  0.1240  0.1510  0.4198
  127EMI    H0F 2407   0.945   2.489   1.351  2.0793 -1.8456  1.5655
  127EMI    C0N 2408   0.870   2.334   1.234 -0.0647  0.3009  0.1724
  127EMI    H0O 2409   0.893   2.260   1.309  1.7668 -0.5527 -1.1515
  127EMI    H0P 2410   0.765   2.360   1.246 -0.2502 -0.8568  1.2690
  127EMI    H0Q 2411   0.886   2.284   1.139  0.5797  0.6163  0.1115
  127EMI    N02 2412   0.915   2.552   1.146 -0.7481 -0.0744  0.3670
  127EMI    H0E 2413   1.061   2.419   1.226  0.1711  0.1044  0.6717
  128EMI    C01 2414   3.168   0.911   2.427 -0.1662 -0.5332 -0.7130
  128EMI    C04 2415   3.012   0.819   2.320  0.3244  0.7056 -0.3957
  128EMI    C03 2416   2.990   0.950   2.314 -0.1393 -0.3294 -0.1265
  128EMI    H07 2417   3.260   0.925   2.480  0.0146 -0.6814 -0.9885
  128EMI    H09 2418   2.948   0.744   2.279  0.6512  0.5319 -0.5943
  128EMI    H08 2419   2.903   1.002   2.279  0.5269  0.9408  0.0408
  128EMI    C05 2420   3.093   1.146   2.445  0.3606 -0.0598  0.2062
  128EMI    H0B 2421   2.994   1.178   2.471  0.1319 -0.7295  0.1781
  128EMI    H0C 2422   3.147   1.157   2.538  1.1195 -0.4244 -0.1800
  128EMI    H0D 2423   3.127   1.218   2.372  0.9581  1.2160  1.6865
  128EMI    N00 2424   3.092   1.009   2.388  0.4746 -0.1853 -0.6139
  128EMI    C06 2425   3.210   0.671   2.390 -0.2736 -0.4557 -0.3515
  128EMI    H0F 2426   3.158   0.600   2.327 -1.5289 -1.5353  1.7737
  128EMI    C0N 2427   3.357   0.702   2.342 -0.2455 -0.1528  0.0066
  128EMI    H0O 2428   3.395   0.764   2.423 -0.9208  1.2245 -0.6897
  128EMI    H0P 2429   3.413   0.610   2.330 -1.7355 -0.9519 -1.2250
  128EMI    H0Q 2430   3.353   0.755   2.248 -2.1558 -0.2367  0.0014
  128EMI    N02 2431   3.129   0.797   2.388 -0.2576  0.9066 -0.0661
  128EMI    H0E 2432   3.210   0.634   2.491 -1.7882 -1.9091 -0.8351
  129EMI    C01 2433   2.215   3.077   2.699  0.2283  0.8801  0.1514
  129EMI    C04 2434   2.299   3.278   2.652  0.6582  0.5483  0.2684
  129EMI    C03 2435   2.359   3.188   2.572  0.2639 -0.2600 -0.0965
  129EMI    H07 2436   2.157   3.001   2.748  3.1075 -2.3881 -1.0338
  129EMI    H09 2437   2.316   3.384   2.656 -0.5530  0.8130 -0.8642
  129EMI    H08 2438   2.438   3.211   2.505  0.8164  2.3494  1.3200
  129EMI    C05 2439   2.341   2.935   2.543  0.1126 -0.4773  0.6537
  129EMI    H0B 2440   2.311   2.845   2.595  0.8488 -1.2138 -0.1609
  129EMI    H0C 2441   2.297   2.924   2.445  0.2860  0.1383  0.5078
  129EMI    H0D 2442   2.448   2.931   2.536  0.0629 -0.0676 -0.6351
  129EMI    N00 2443   2.308   3.066   2.608 -0.0971 -0.0905 -0.2543
  129EMI    C06 2444   2.138   3.263   2.853 -0.2595 -0.2878  0.4115
  129EMI    H0F 2445   2.107   3.170   2.899 -0.4000 -0.3418  0.2064
  129EMI    C0N 2446   2.229   3.344   2.938 -0.2063 -0.1126 -0.2175
  129EMI    H0O 2447   2.232   3.447   2.901  0.0702  0.4801  1.3917
  129EMI    H0P 2448   2.202   3.353   3.042  0.0915 -1.2322 -0.0301
  129EMI    H0Q 2449   2.330   3.306   2.927 -0.3732 -0.4979 -0.4276
  129EMI    N02 2450   2.207   3.203   2.732  0.0933  0.6617  0.2321
  129EMI    H0E 2451   2.055   3.320   2.814  0.2596 -0.3272 -0.7739
  130EMI    C01 2452   0.700   2.839   2.045  0.6732 -0.8804  0.9435
  130EMI    C04 2453   0.487   2.840   2.098  0.2600 -0.1921  0.4282
  130EMI    C03 2454   0.499   2.782   1.981  0.2426  0.8546  0.4203
  130EMI    H07 2455   0.805   2.852   2.038  0.3838  1.6199  0.0011
  130EMI    H09 2456   0.399   2.850   2.157  0.5555  0.4747  0.7666
  130EMI    H08 2457   0.429   2.730   1.919  0.6493  0.0168  0.6460
  130EMI    C05 2458   0.689   2.722   1.823 -0.0038  0.0677 -0.6884
  130EMI    H0B 2459   0.635   2.638   1.783 -2.3014  1.4710 -0.7477
  130EMI    H0C 2460   0.691   2.796   1.745  2.1830 -0.5105 -1.2581
  130EMI    H0D 2461   0.786   2.683   1.851 -0.6396 -1.7218 -0.8725
  130EMI    N00 2462   0.633   2.787   1.945  0.6970 -0.1242 -0.0648
  130EMI    C06 2463   0.640   2.956   2.266 -0.4518  0.1300 -0.2095
  130EMI    H0F 2464   0.745   2.941   2.289 -0.5412  1.5099  1.1704
  130EMI    C0N 2465   0.604   3.097   2.243 -0.1058  0.3514  0.4301
  130EMI    H0O 2466   0.502   3.120   2.268 -0.5052 -1.1550  0.2698
  130EMI    H0P 2467   0.666   3.166   2.299  0.8390 -1.0817  1.2163
  130EMI    H0Q 2468   0.629   3.121   2.140  1.9178  0.8410  0.9809
  130EMI    N02 2469   0.612   2.881   2.138 -0.5834 -0.2128 -0.1065
  130EMI    H0E 2470   0.582   2.909   2.344  2.5245 -2.5340  0.6521
  131EMI    C01 2471   2.067   1.089   1.923  0.0056 -0.1568 -0.3913
  131EMI    C04 2472   1.967   1.020   1.740 -0.0331  0.4059 -0.7223
  131EMI    C03 2473   2.065   0.937   1.764 -0.7047 -0.3934  0.1120
  131EMI    H07 2474   2.098   1.143   2.010  1.2998 -0.2402 -0.7803
  131EMI    H09 2475   1.895   1.017   1.661 -2.1446  1.0874  1.0800
  131EMI    H08 2476   2.103   0.858   1.703 -1.0094 -1.4593  1.2855
  131EMI    C05 2477   2.253   0.921   1.938  0.3764 -0.1947  0.4261
  131EMI    H0B 2478   2.339   0.941   1.877  0.4022 -2.1586 -0.2304
  131EMI    H0C 2479   2.255   0.968   2.036  0.0492 -0.9914  0.8215
  131EMI    H0D 2480   2.242   0.815   1.954  3.7912 -0.7730 -0.3197
  131EMI    N00 2481   2.126   0.976   1.882  0.0433  0.4441  0.4004
  131EMI    C06 2482   1.889   1.243   1.838  0.2217 -0.1873 -0.4077
  131EMI    H0F 2483   1.799   1.225   1.895  1.1495  0.2878  1.2815
  131EMI    C0N 2484   1.952   1.368   1.903  0.1141  1.0229  0.1978
  131EMI    H0O 2485   2.027   1.413   1.840 -0.3952  1.6203  0.0051
  131EMI    H0P 2486   1.877   1.443   1.928 -0.0104  0.6183  1.0705
  131EMI    H0Q 2487   1.990   1.344   2.002  1.9034  0.4053 -0.6015
  131EMI    N02 2488   1.969   1.117   1.842 -0.5324  0.2688  0.0072
  131EMI    H0E 2489   1.866   1.265   1.735 -0.1029  0.3546 -0.2254
  132EMI    C01 2490   3.386   3.122   1.872 -0.9631  0.0032 -0.2115
  132EMI    C04 2491   3.592   3.066   1.836 -0.4082 -0.1865 -0.5006
  132EMI    C03 2492   3.587   3.202   1.824 -0.2149  0.4180 -0.1557
  132EMI    H07 2493   3.282   3.116   1.892 -0.8429  0.7109  0.6836
  132EMI    H09 2494   3.679   3.005   1.841 -0.0396  0.4308  1.4233
  132EMI    H08 2495   3.663   3.275   1.806 -1.1977  1.8393  1.2096
  132EMI    C05 2496   3.393   3.365   1.821 -0.1601 -0.0969  0.2351
  132EMI    H0B 2497   3.423   3.412   1.913  3.6483 -3.5803  1.0828
  132EMI    H0C 2498   3.437   3.418   1.738 -1.1804 -0.0288 -0.2781
  132EMI    H0D 2499   3.286   3.360   1.810 -0.3252  2.3031  0.3035
  132EMI    N00 2500   3.453   3.231   1.838 -0.3307 -0.0685  0.2130
  132EMI    C06 2501   3.442   2.876   1.898 -0.3103 -0.4351 -0.5408
  132EMI    H0F 2502   3.341   2.863   1.933 -0.9511 -2.2750 -2.8067
  132EMI    C0N 2503   3.479   2.789   1.784 -0.0397  0.2057  0.1518
  132EMI    H0O 2504   3.391   2.792   1.721 -1.1853 -0.2816  1.6625
  132EMI    H0P 2505   3.569   2.814   1.729  1.0133 -1.1526  1.1665
  132EMI    H0Q 2506   3.494   2.683   1.805 -0.1506 -0.1255 -1.3343
  132EMI    N02 2507   3.473   3.021   1.884 -0.4282 -0.7488  0.1945
  132EMI    H0E 2508   3.504   2.861   1.986 -1.3139 -0.4372  0.1895
  133EMI    C01 2509   2.253   0.490   1.652 -0.3941 -0.1461  0.6378
  133EMI    C04 2510   2.390   0.583   1.797  0.0203  0.1546  0.6005
  133EMI    C03 2511   2.319   0.486   1.855  0.7174  0.6012  0.3533
  133EMI    H07 2512   2.207   0.475   1.556 -0.3285  0.0331  0.5776
  133EMI    H09 2513   2.475   0.636   1.832  1.8525 -1.9498 -0.3698
  133EMI    H08 2514   2.333   0.448   1.954  1.4007  0.4023  0.1846
  133EMI    C05 2515   2.157   0.306   1.785  0.0284  0.0246 -0.1069
  133EMI    H0B 2516   2.064   0.317   1.732 -0.2207  0.0779  0.3391
  133EMI    H0C 2517   2.212   0.215   1.764 -0.2832 -0.0623 -0.5595
  133EMI    H0D 2518   2.134   0.303   1.890  1.4071 -0.0536  0.2123
  133EMI    N00 2519   2.235   0.425   1.763 -0.0180 -0.5778 -0.0903
  133EMI    C06 2520   2.368   0.696   1.566 -0.8241 -0.0937 -0.3866
  133EMI    H0F 2521   2.472   0.694   1.536 -0.6116  1.3124  0.1624
  133EMI    C0N 2522   2.288   0.684   1.439  0.4744 -0.5262 -0.9923
  133EMI    H0O 2523   2.321   0.606   1.371  0.2903 -2.1756  0.7218
  133EMI    H0P 2524   2.180   0.684   1.450  0.5072 -1.9099 -0.4808
  133EMI    H0Q 2525   2.311   0.777   1.389 -2.7905  0.3181 -1.1086
  133EMI    N02 2526   2.339   0.591   1.669  0.9366  0.1063  0.3718
  133EMI    H0E 2527   2.328   0.786   1.611  1.8632  0.2951  1.4681
  134EMI    C01 2528   0.669   4.679   1.075  0.4600  0.0385  0.3717
  134EMI    C04 2529   0.796   4.651   1.250  0.1152 -0.2922 -0.1069
  134EMI    C03 2530   0.742   4.534   1.212 -0.4018 -0.1223 -0.7598
  134EMI    H07 2531   0.607   4.722   1.000 -0.5909 -1.6292  0.2325
  134EMI    H09 2532   0.865   4.678   1.327 -0.4017 -0.4578  0.4222
  134EMI    H08 2533   0.771   4.437   1.247  3.6440  1.3432  0.5495
  134EMI    C05 2534   0.567   4.448   1.049 -0.4968 -0.1253 -0.3350
  134EMI    H0B 2535   0.537   4.377   1.125 -1.1958  0.0642 -0.4281
  134EMI    H0C 2536   0.478   4.492   1.005 -0.3746  0.5102  0.0521
  134EMI    H0D 2537   0.624   4.395   0.975  1.4160  1.8317 -0.3587
  134EMI    N00 2538   0.663   4.552   1.106 -0.0863  0.4248  0.5980
  134EMI    C06 2539   0.775   4.886   1.151 -0.2782 -0.2072  0.2637
  134EMI    H0F 2540   0.881   4.893   1.167  0.4032 -2.3370 -2.3912
  134EMI    C0N 2541   0.750   4.936   1.011  0.7131 -0.2903 -0.1673
  134EMI    H0O 2542   0.790   5.036   0.998 -0.3260  0.4644  2.0146
  134EMI    H0P 2543   0.815   4.879   0.945  1.9024  0.3703  0.3937
  134EMI    H0Q 2544   0.647   4.929   0.979  0.7867 -0.0030 -0.4672
  134EMI    N02 2545   0.745   4.743   1.155 -0.1378 -0.6706 -0.7641
  134EMI    H0E 2546   0.719   4.943   1.223  0.9571  1.6636 -0.1836
  135EMI    C01 2547   0.543   1.368   4.177 -0.0128  0.3742 -0.6380
  135EMI    C04 2548   0.451   1.563   4.240 -0.3863  0.3313 -0.0795
  135EMI    C03 2549   0.531   1.577   4.133  0.6138  0.3089  0.7299
  135EMI    H07 2550   0.583   1.272   4.203 -1.5255  0.4753  2.4333
  135EMI    H09 2551   0.397   1.636   4.297  1.3081  1.5744  0.0246
  135EMI    H08 2552   0.555   1.673   4.092 -0.2969  1.0484  1.8641
  135EMI    C05 2553   0.685   1.427   3.983  0.2718  0.5484  0.1258
  135EMI    H0B 2554   0.787   1.457   4.001  0.6899 -0.0016 -1.2017
  135EMI    H0C 2555   0.689   1.319   3.978  0.6903  0.6232 -2.1652
  135EMI    H0D 2556   0.652   1.452   3.883 -1.1020 -2.1858 -0.2071
  135EMI    N00 2557   0.589   1.455   4.092  0.5456 -0.4505  0.1187
  135EMI    C06 2558   0.372   1.357   4.358 -0.0360 -0.5701 -0.7462
  135EMI    H0F 2559   0.399   1.406   4.451 -0.6110  0.6188 -1.1860
  135EMI    C0N 2560   0.229   1.354   4.311 -0.0533 -0.7565 -0.2525
  135EMI    H0O 2561   0.181   1.450   4.298 -2.1074 -2.0212 -3.3438
  135EMI    H0P 2562   0.241   1.304   4.215  2.2943  0.0032 -0.4092
  135EMI    H0Q 2563   0.160   1.313   4.384  0.6416  2.0587  2.1340
  135EMI    N02 2564   0.452   1.426   4.256  0.4739 -0.0212 -0.4195
  135EMI    H0E 2565   0.415   1.258   4.350 -1.7008 -1.2656 -1.6030
  136EMI    C01 2566   1.039   0.110   3.936 -0.8620 -0.2470  0.1159
  136EMI    C04 2567   1.182   0.270   3.914  0.1260  0.0966 -0.6015
  136EMI    C03 2568   1.076   0.306   3.841 -0.5184 -0.0383  0.0447
  136EMI    H07 2569   0.997   0.017   3.969  0.3175 -0.7065  0.3763
  136EMI    H09 2570   1.273   0.323   3.933 -0.0334  0.8761 -1.8946
  136EMI    H08 2571   1.062   0.388   3.775  1.1996  1.2351  1.1685
  136EMI    C05 2572   0.851   0.191   3.792  0.2772 -0.3200 -0.0873
  136EMI    H0B 2573   0.787   0.109   3.820 -0.2340  0.6045  1.5842
  136EMI    H0C 2574   0.798   0.284   3.805  0.4665 -0.5659  3.3606
  136EMI    H0D 2575   0.879   0.176   3.688  1.3298  2.8076 -0.3795
  136EMI    N00 2576   0.984   0.204   3.854 -0.8968  0.0652 -0.0824
  136EMI    C06 2577   1.229   0.095   4.094  0.5094  0.0647 -0.2295
  136EMI    H0F 2578   1.328   0.100   4.052 -0.0039  0.7433 -1.3854
  136EMI    C0N 2579   1.208   0.149   4.228  0.4589 -0.1633 -0.2985
  136EMI    H0O 2580   1.103   0.175   4.238 -0.0479 -2.5625  1.6567
  136EMI    H0P 2581   1.224   0.067   4.298  1.0201  0.6080  0.4976
  136EMI    H0Q 2582   1.285   0.220   4.254 -0.4663  0.2942  1.3331
  136EMI    N02 2583   1.150   0.157   3.983  0.0266  0.0817  0.5556
  136EMI    H0E 2584   1.212  -0.012   4.091 -0.0128  0.1527 -0.4703
  137EMI    C01 2585   3.937   1.738   4.985  0.2883  0.4318  0.5820
  137EMI    C04 2586   3.804   1.637   5.128 -0.1918 -0.0066  0.3876
  137EMI    C03 2587   3.930   1.600   5.156 -0.3681 -0.6579 -0.5885
  137EMI    H07 2588   3.976   1.805   4.912 -2.0168  0.8091 -0.3934
  137EMI    H09 2589   3.714   1.609   5.178 -0.8316 -1.6481 -1.5583
  137EMI    H08 2590   3.971   1.535   5.230 -1.0843 -1.2488 -0.6980
  137EMI    C05 2591   4.151   1.626   5.046 -0.3025  0.2751  0.2842
  137EMI    H0B 2592   4.174   1.529   5.088 -0.9656 -0.0036  0.0211
  137EMI    H0C 2593   4.178   1.623   4.942 -0.4628  0.8782  0.2188
  137EMI    H0D 2594   4.195   1.708   5.102  1.6144 -0.4585 -0.0813
  137EMI    N00 2595   4.007   1.655   5.058  0.4771  0.3280  0.2739
  137EMI    C06 2596   3.698   1.783   4.952 -0.0084  0.3152  0.2106
  137EMI    H0F 2597   3.728   1.815   4.853 -1.4898  0.3690 -0.2396
  137EMI    C0N 2598   3.579   1.691   4.943  0.0644  0.2208  0.1867
  137EMI    H0O 2599   3.600   1.586   4.930  0.7152  0.3984 -0.2021
  137EMI    H0P 2600   3.522   1.688   5.035  0.5778 -2.9443  0.5140
  137EMI    H0Q 2601   3.502   1.719   4.871 -0.6506 -0.2888  0.7344
  137EMI    N02 2602   3.813   1.720   5.015 -0.2248 -0.4087 -0.2476
  137EMI    H0E 2603   3.672   1.881   4.989  1.8343  1.0347 -0.2966
  138EMI    C01 2604   4.151   3.175   2.374 -0.0846 -0.3572 -0.0979
  138EMI    C04 2605   4.008   3.042   2.284 -0.7645  0.4007  0.2834
  138EMI    C03 2606   4.136   2.992   2.279  0.5533  0.1144  0.8660
  138EMI    H07 2607   4.183   3.258   2.433 -1.5731 -0.1337  0.4524
  138EMI    H09 2608   3.913   3.001   2.258 -0.7976  0.3716  0.4505
  138EMI    H08 2609   4.156   2.891   2.249 -2.6743 -0.6168  0.7486
  138EMI    C05 2610   4.347   3.031   2.418  0.8286  0.2951  0.0498
  138EMI    H0B 2611   4.381   3.127   2.454  0.4660  0.6700 -0.6089
  138EMI    H0C 2612   4.325   2.960   2.497 -3.1078 -0.9093 -1.8891
  138EMI    H0D 2613   4.413   2.985   2.346  1.6688  2.6439 -0.7557
  138EMI    N00 2614   4.217   3.065   2.352 -0.0632 -0.3833  0.2186
  138EMI    C06 2615   3.929   3.284   2.328 -0.4014 -0.0017 -0.2109
  138EMI    H0F 2616   3.899   3.315   2.229 -1.7253  3.3095  1.0714
  138EMI    C0N 2617   3.812   3.266   2.420  0.3770 -0.0769 -0.0464
  138EMI    H0O 2618   3.739   3.199   2.375  0.7652 -0.7700  0.3405
  138EMI    H0P 2619   3.853   3.225   2.511  2.0133 -0.3986 -0.9043
  138EMI    H0Q 2620   3.766   3.361   2.446  0.8060 -0.0535  0.6301
  138EMI    N02 2621   4.030   3.175   2.326 -0.2264  0.4446 -0.1894
  138EMI    H0E 2622   3.982   3.371   2.365 -1.7661  0.2076  1.3894
  139EMI    C01 2623   1.675   0.694   1.390 -0.2396  0.3318 -0.1986
  139EMI    C04 2624   1.471   0.608   1.379 -0.2349  0.9400  0.2061
  139EMI    C03 2625   1.557   0.530   1.313 -0.2568 -0.4006  0.2954
  139EMI    H07 2626   1.748   0.767   1.419 -1.5904  1.0507  1.5460
  139EMI    H09 2627   1.365   0.600   1.382 -0.4994  2.7178 -1.9607
  139EMI    H08 2628   1.546   0.443   1.252 -0.6562  0.8269 -1.4533
  139EMI    C05 2629   1.811   0.515   1.280  0.5523  0.1053 -0.3455
  139EMI    H0B 2630   1.812   0.413   1.315 -0.3055  0.4912  0.8898
  139EMI    H0C 2631   1.835   0.523   1.175  1.0262  0.7916 -0.1924
  139EMI    H0D 2632   1.887   0.576   1.326 -1.0102  1.1379  1.0091
  139EMI    N00 2633   1.684   0.584   1.318 -0.9644  0.3887 -0.3260
  139EMI    C06 2634   1.519   0.839   1.487  0.4368 -0.4891 -0.4689
  139EMI    H0F 2635   1.585   0.919   1.457 -0.5226 -0.0389 -1.4432
  139EMI    C0N 2636   1.392   0.888   1.410  0.1900 -0.0856  0.0628
  139EMI    H0O 2637   1.302   0.827   1.416  0.6411 -0.9302 -1.2703
  139EMI    H0P 2638   1.351   0.984   1.440 -0.8321  0.2280 -2.1633
  139EMI    H0Q 2639   1.409   0.885   1.303 -1.7118 -0.0358 -0.2881
  139EMI    N02 2640   1.552   0.714   1.422  0.3914 -0.3352 -0.1362
  139EMI    H0E 2641   1.513   0.819   1.593  3.0633 -1.7806 -0.4788
  140EMI    C01 2642   2.294   3.821   1.958 -0.5611 -0.0653  0.3452
  140EMI    C04 2643   2.187   3.679   1.825 -0.6459  0.0926  0.0852
  140EMI    C03 2644   2.153   3.804   1.785 -0.3168 -0.0964 -0.8080
  140EMI    H07 2645   2.355   3.874   2.027  2.1533  1.2011 -2.7511
  140EMI    H09 2646   2.154   3.584   1.790  1.0096 -1.7982  3.2720
  140EMI    H08 2647   2.091   3.835   1.703 -2.2338  0.7622  0.8938
  140EMI    C05 2648   2.227   4.042   1.853  0.3270  0.2287  0.4770
  140EMI    H0B 2649   2.264   4.065   1.754 -1.2620  1.4832  0.1432
  140EMI    H0C 2650   2.126   4.079   1.842  0.7260  0.7639 -2.1184
  140EMI    H0D 2651   2.291   4.079   1.931  0.5904  0.1467  0.3032
  140EMI    N00 2652   2.217   3.890   1.867 -0.1206 -0.0624 -0.1939
  140EMI    C06 2653   2.323   3.585   2.016 -0.2318 -0.2585 -0.1525
  140EMI    H0F 2654   2.340   3.504   1.945  0.5746 -1.4611  1.3408
  140EMI    C0N 2655   2.471   3.605   2.023 -0.4501  0.0472 -0.5145
  140EMI    H0O 2656   2.489   3.679   2.100  0.1811  0.6979 -1.2744
  140EMI    H0P 2657   2.498   3.507   2.060  0.0664 -0.0870 -1.2394
  140EMI    H0Q 2658   2.524   3.629   1.931  2.3548  2.4470  1.5414
  140EMI    N02 2659   2.271   3.694   1.937 -0.3362  0.7441 -0.2200
  140EMI    H0E 2660   2.278   3.547   2.106  2.0554 -1.2050  0.6705
  141EMI    C01 2661   2.074   4.287   4.021 -0.5795 -0.1141 -0.2432
  141EMI    C04 2662   2.026   4.089   3.949  0.1790 -0.0737  0.5929
  141EMI    C03 2663   2.143   4.123   3.897 -0.7431 -0.0489  0.3045
  141EMI    H07 2664   2.059   4.382   4.067  0.1069 -0.0215 -0.2002
  141EMI    H09 2665   1.977   3.995   3.933  0.7614 -0.0574 -1.6139
  141EMI    H08 2666   2.214   4.071   3.837  0.1026  2.1320 -0.6868
  141EMI    C05 2667   2.267   4.347   3.881  0.0823 -0.7626 -0.1650
  141EMI    H0B 2668   2.230   4.446   3.900  0.5214 -0.4756 -0.7841
  141EMI    H0C 2669   2.356   4.323   3.937 -1.2392 -1.7497  1.5863
  141EMI    H0D 2670   2.278   4.331   3.774  1.0455 -1.5400  0.0319
  141EMI    N00 2671   2.163   4.257   3.929  0.3683  0.1205 -0.3275
  141EMI    C06 2672   1.875   4.182   4.126 -0.1153  0.0624 -0.4369
  141EMI    H0F 2673   1.901   4.158   4.228  1.3128 -0.2375 -0.8462
  141EMI    C0N 2674   1.791   4.301   4.113 -0.5721  0.0626  0.0413
  141EMI    H0O 2675   1.747   4.307   4.014 -0.6172  0.4394  0.0810
  141EMI    H0P 2676   1.725   4.310   4.199 -0.4801  1.1577  0.0127
  141EMI    H0Q 2677   1.851   4.390   4.131 -0.8019  0.1906  0.1869
  141EMI    N02 2678   1.992   4.183   4.039  0.3119  0.2926  0.2845
  141EMI    H0E 2679   1.812   4.106   4.081 -1.3025  0.2901  0.7669
  142EMI    C01 2680   0.588   4.369   0.445 -0.7819  0.1359 -0.1363
  142EMI    C04 2681   0.379   4.360   0.401  0.1138 -0.3084 -0.0302
  142EMI    C03 2682   0.407   4.274   0.505  0.3843  0.7713  0.0006
  142EMI    H07 2683   0.690   4.390   0.421 -0.4495 -0.4372  0.7063
  142EMI    H09 2684   0.283   4.380   0.361 -0.7744 -1.2432  1.5126
  142EMI    H08 2685   0.340   4.210   0.558 -1.5068  3.2438  0.8037
  142EMI    C05 2686   0.629   4.175   0.592  0.2906 -0.9395  0.3273
  142EMI    H0B 2687   0.652   4.193   0.696 -1.3627 -2.2470  0.9627
  142EMI    H0C 2688   0.579   4.080   0.582  0.8692 -1.1295 -0.9816
  142EMI    H0D 2689   0.727   4.180   0.547  0.0665  0.8903 -0.0199
  142EMI    N00 2690   0.547   4.266   0.516  0.4311 -0.1181  0.1118
  142EMI    C06 2691   0.509   4.520   0.263 -0.1470 -0.2563  0.0251
  142EMI    H0F 2692   0.415   4.510   0.211  0.6074 -1.8058 -1.1147
  142EMI    C0N 2693   0.533   4.666   0.313 -0.4656  0.1962 -0.1708
  142EMI    H0O 2694   0.449   4.696   0.375  0.6801  0.1972  1.4200
  142EMI    H0P 2695   0.627   4.664   0.366 -1.7229 -1.3940  2.1780
  142EMI    H0Q 2696   0.529   4.741   0.235 -2.2958  2.4453  1.9025
  142EMI    N02 2697   0.493   4.423   0.371 -0.6804  0.1855 -0.6794
  142EMI    H0E 2698   0.579   4.487   0.188  0.7630  0.2255  0.6366
  143EMI    C01 2699   0.508   4.710   3.930  0.2790  0.2759 -0.2607
  143EMI    C04 2700   0.673   4.839   4.003 -0.5628  0.1194 -0.0613
  143EMI    C03 2701   0.558   4.887   4.051  0.4767 -0.2123 -0.0698
  143EMI    H07 2702   0.448   4.631   3.890 -0.7542  0.9005  0.0256
  143EMI    H09 2703   0.774   4.871   4.010 -0.6614  0.5652 -0.5642
  143EMI    H08 2704   0.544   4.969   4.118  0.1818 -0.0522 -0.3291
  143EMI    C05 2705   0.310   4.822   4.025  0.3886 -0.2406 -0.4102
  143EMI    H0B 2706   0.286   4.923   3.994  1.3626  0.0352 -0.3016
  143EMI    H0C 2707   0.248   4.768   3.955  0.1656 -1.6094  0.7905
  143EMI    H0D 2708   0.289   4.811   4.131  1.1598  1.0627 -0.0934
  143EMI    N00 2709   0.453   4.811   3.998 -0.0169  0.8992  0.0287
  143EMI    C06 2710   0.730   4.675   3.816  0.2341  0.4087 -0.4058
  143EMI    H0F 2711   0.782   4.589   3.856 -0.0019  0.6043  0.3342
  143EMI    C0N 2712   0.673   4.637   3.682 -0.9574  0.5798 -0.0703
  143EMI    H0O 2713   0.645   4.533   3.667  2.6641 -0.3898 -1.0759
  143EMI    H0P 2714   0.585   4.698   3.666 -2.5520 -1.5826 -0.1427
  143EMI    H0Q 2715   0.747   4.651   3.604 -0.7044 -2.7942 -0.5988
  143EMI    N02 2716   0.640   4.729   3.923  0.4230  0.1838  0.1840
  143EMI    H0E 2717   0.807   4.750   3.799  1.2012 -0.3392  0.5659
  144EMI    C01 2718   2.509   1.899   3.966 -0.2110  0.1499  0.1912
  144EMI    C04 2719   2.539   1.867   4.181 -1.0110 -0.2612 -0.3822
  144EMI    C03 2720   2.479   1.983   4.166 -0.6031 -0.0563 -0.2567
  144EMI    H07 2721   2.526   1.890   3.860 -0.8231  1.1125  0.0061
  144EMI    H09 2722   2.574   1.825   4.272  1.0421  0.3794 -0.8338
  144EMI    H08 2723   2.452   2.062   4.232  1.2120  1.2710 -1.0185
  144EMI    C05 2724   2.391   2.114   3.965 -0.3974 -0.0107 -0.9298
  144EMI    H0B 2725   2.291   2.083   3.940 -0.3691 -1.8054  0.9176
  144EMI    H0C 2726   2.401   2.197   4.033  2.7418 -1.7355  0.9397
  144EMI    H0D 2727   2.441   2.138   3.872 -0.2861 -0.6961 -1.0549
  144EMI    N00 2728   2.463   2.003   4.026 -0.7390 -0.0634 -0.6622
  144EMI    C06 2729   2.623   1.685   4.034 -0.8130  0.2045 -0.5379
  144EMI    H0F 2730   2.609   1.647   3.934 -0.2325  1.9202 -1.3162
  144EMI    C0N 2731   2.773   1.686   4.077  0.2264 -0.1362 -0.7161
  144EMI    H0O 2732   2.818   1.774   4.032  1.3738  1.7917  3.6496
  144EMI    H0P 2733   2.780   1.709   4.183 -3.9871  0.8152 -0.4752
  144EMI    H0Q 2734   2.830   1.599   4.045  1.0386  0.5648 -1.2116
  144EMI    N02 2735   2.557   1.811   4.059 -0.2363  0.2274  0.7877
  144EMI    H0E 2736   2.576   1.613   4.098  2.0458 -0.3105  1.1666
  145EMI    C01 2737   3.046   4.607   1.431  0.1589  0.2500 -0.4362
  145EMI    C04 2738   2.921   4.441   1.498 -1.0237 -0.0467  0.4757
  145EMI    C03 2739   2.865   4.558   1.537  0.0125  0.4376 -0.1204
  145EMI    H07 2740   3.113   4.658   1.366  1.7653 -0.5782  0.5100
  145EMI    H09 2741   2.900   4.338   1.519  2.0775 -0.4920  1.9661
  145EMI    H08 2742   2.778   4.583   1.593 -0.5353  0.8747 -1.1382
  145EMI    C05 2743   2.920   4.809   1.502 -0.9702 -0.1269 -0.1362
  145EMI    H0B 2744   2.941   4.867   1.413  2.1596  1.9106  1.7105
  145EMI    H0C 2745   2.820   4.820   1.542 -0.7016  0.6495  0.3527
  145EMI    H0D 2746   2.980   4.843   1.585 -1.4091 -0.8324  0.4780
  145EMI    N00 2747   2.940   4.661   1.484 -0.2175 -0.3575  0.9086
  145EMI    C06 2748   3.127   4.372   1.359  1.1046 -0.5284 -0.3318
  145EMI    H0F 2749   3.181   4.310   1.429  1.2336 -0.4166 -0.3325
  145EMI    C0N 2750   3.058   4.291   1.245  0.1310 -0.1729  0.9607
  145EMI    H0O 2751   3.032   4.355   1.161 -0.0764  0.5621  1.5735
  145EMI    H0P 2752   3.128   4.225   1.194  0.0958  1.1866 -0.9941
  145EMI    H0Q 2753   2.970   4.238   1.277 -1.1202  0.2615 -1.4930
  145EMI    N02 2754   3.041   4.472   1.436  0.0048  0.0859 -0.2880
  145EMI    H0E 2755   3.194   4.427   1.295  0.8994  1.0152  0.7380
  146EMI    C01 2756   1.973   2.146   2.203  0.2673  0.1297 -0.2559
  146EMI    C04 2757   1.857   2.162   2.025  0.0374 -0.4268  0.3670
  146EMI    C03 2758   1.797   2.071   2.097 -0.2761  0.4293  0.1476
  146EMI    H07 2759   2.039   2.163   2.285  1.2663 -0.5226 -0.9109
  146EMI    H09 2760   1.826   2.182   1.924 -2.7103 -2.0367  0.7973
  146EMI    H08 2761   1.715   2.004   2.082 -0.6133  0.4162  1.8531
  146EMI    C05 2762   1.846   1.969   2.323 -0.5730  0.1875  0.3507
  146EMI    H0B 2763   1.937   1.921   2.356 -0.2300 -1.9649 -3.2442
  146EMI    H0C 2764   1.803   2.019   2.408  3.0672  1.1927  1.7865
  146EMI    H0D 2765   1.791   1.886   2.280  0.6913  0.4303 -1.8561
  146EMI    N00 2766   1.870   2.061   2.214  0.3229  0.6690  1.0927
  146EMI    C06 2767   2.044   2.318   2.036 -0.0252 -0.4772 -0.1666
  146EMI    H0F 2768   2.101   2.284   1.951  0.7061  3.1402 -1.3171
  146EMI    C0N 2769   1.973   2.442   1.982  0.1245 -0.7783 -0.4045
  146EMI    H0O 2770   1.907   2.405   1.904 -0.2684 -0.2441 -0.3361
  146EMI    H0P 2771   1.918   2.497   2.058 -1.5063  0.6165 -2.4831
  146EMI    H0Q 2772   2.053   2.502   1.940 -0.3917 -1.3818 -2.3637
  146EMI    N02 2773   1.961   2.218   2.095 -0.4839 -0.7177 -0.0706
  146EMI    H0E 2774   2.119   2.338   2.111 -1.0300 -3.1617  1.7112
  147EMI    C01 2775   3.556   3.729   2.948 -0.9128 -0.0061  0.3868
  147EMI    C04 2776   3.386   3.668   2.838  0.0016  0.2842 -0.3141
  147EMI    C03 2777   3.357   3.784   2.891 -0.0391 -0.1668  0.4529
  147EMI    H07 2778   3.656   3.738   2.986 -0.8622 -1.8596  0.7900
  147EMI    H09 2779   3.331   3.617   2.763 -2.2454 -0.3325  1.6382
  147EMI    H08 2780   3.271   3.845   2.874 -1.2416 -2.1724 -1.1824
  147EMI    C05 2781   3.481   3.945   3.051 -0.1650 -0.1716 -0.3007
  147EMI    H0B 2782   3.472   4.033   2.989 -2.7080  0.2584  0.5636
  147EMI    H0C 2783   3.403   3.950   3.125  0.2081 -1.2936  0.1967
  147EMI    H0D 2784   3.575   3.945   3.105  0.1082 -1.2407 -0.7459
  147EMI    N00 2785   3.460   3.819   2.971 -0.4513 -0.5544  0.4908
  147EMI    C06 2786   3.583   3.499   2.852 -0.2240  0.1230 -0.2512
  147EMI    H0F 2787   3.515   3.418   2.876  0.9212 -0.4763  1.0591
  147EMI    C0N 2788   3.645   3.494   2.713  0.2132 -0.2830 -0.1465
  147EMI    H0O 2789   3.577   3.527   2.636 -0.0158  0.3995  0.3287
  147EMI    H0P 2790   3.724   3.569   2.715  0.1735 -0.2252  1.8450
  147EMI    H0Q 2791   3.675   3.391   2.700 -1.7018 -0.9120  0.1386
  147EMI    N02 2792   3.510   3.629   2.882 -0.5480  0.2385  0.1660
  147EMI    H0E 2793   3.659   3.487   2.928 -0.2442 -0.2493 -0.2864
  148EMI    C01 2794   0.240   4.327   4.813 -0.3735 -0.2931  0.2680
  148EMI    C04 2795   0.167   4.510   4.726 -0.0901  0.0384 -0.5004
  148EMI    C03 2796   0.252   4.452   4.640 -0.1104  0.5963 -0.0650
  148EMI    H07 2797   0.244   4.239   4.874 -0.6247 -0.9947 -0.6925
  148EMI    H09 2798   0.118   4.604   4.722 -0.8202 -0.3014  0.1474
  148EMI    H08 2799   0.296   4.492   4.551  0.7426 -3.2779 -1.5778
  148EMI    C05 2800   0.400   4.246   4.630 -0.1512 -0.4938  0.8173
  148EMI    H0B 2801   0.436   4.286   4.536  0.2097 -1.7549  0.4067
  148EMI    H0C 2802   0.481   4.252   4.701 -0.3027  0.2284  0.9374
  148EMI    H0D 2803   0.345   4.155   4.612 -1.1582  0.3492 -0.6952
  148EMI    N00 2804   0.303   4.339   4.698 -0.0452  0.3725 -0.0255
  148EMI    C06 2805   0.079   4.444   4.967 -0.5679 -0.3299  0.0668
  148EMI    H0F 2806   0.090   4.544   5.005 -1.8222  0.4930 -1.5632
  148EMI    C0N 2807  -0.062   4.389   4.947  0.4255  0.0977  0.3107
  148EMI    H0O 2808  -0.046   4.290   4.906 -0.5564  0.3146 -0.6255
  148EMI    H0P 2809  -0.111   4.378   5.043 -2.2866 -2.3845 -1.1940
  148EMI    H0Q 2810  -0.116   4.442   4.870 -0.6963 -0.9648  0.3338
  148EMI    N02 2811   0.159   4.427   4.839 -0.0314  0.2248  0.4213
  148EMI    H0E 2812   0.142   4.403   5.044 -0.2326  1.6101  0.8959
  149EMI    C01 2813   1.416   0.986   3.389  0.0123 -0.1714  0.0409
  149EMI    C04 2814   1.584   1.001   3.252  0.4997  1.1702 -0.8702
  149EMI    C03 2815   1.631   1.005   3.378  0.3930  0.7823  0.0435
  149EMI    H07 2816   1.315   0.972   3.423 -0.6296  1.7861 -0.9417
  149EMI    H09 2817   1.631   1.003   3.156  2.2826  1.2159 -0.0339
  149EMI    H08 2818   1.733   1.008   3.411  0.2689 -0.8358  0.6418
  149EMI    C05 2819   1.526   1.019   3.607 -0.0013 -0.2972 -1.0211
  149EMI    H0B 2820   1.602   1.093   3.629 -0.1699 -0.5369  0.5092
  149EMI    H0C 2821   1.431   1.049   3.649  0.2371  0.2316 -0.8566
  149EMI    H0D 2822   1.553   0.923   3.648  0.8722  0.7098  0.9001
  149EMI    N00 2823   1.519   0.997   3.464 -0.0321 -0.1996  0.4796
  149EMI    C06 2824   1.359   0.971   3.152 -0.6865  0.1397  0.3539
  149EMI    H0F 2825   1.394   0.912   3.069 -0.9584  1.6460 -0.8696
  149EMI    C0N 2826   1.231   0.897   3.182 -0.1897 -0.0894  0.0812
  149EMI    H0O 2827   1.238   0.802   3.234  0.4554  0.0324  0.2246
  149EMI    H0P 2828   1.161   0.955   3.242 -0.8452 -1.8441  1.0748
  149EMI    H0Q 2829   1.176   0.875   3.091 -2.4473  0.4828  1.2273
  149EMI    N02 2830   1.449   0.980   3.265  0.0667 -0.0673  0.2347
  149EMI    H0E 2831   1.351   1.071   3.115 -1.4335  0.6574  1.8190
  150EMI    C01 2832   0.115   0.433   0.666 -0.1973 -0.3700  0.5788
  150EMI    C04 2833   0.159   0.228   0.602 -0.6893  0.0376  0.3406
  150EMI    C03 2834   0.029   0.248   0.588  0.4923  0.2793 -1.0453
  150EMI    H07 2835   0.117   0.537   0.690 -1.2353  0.6475 -3.1300
  150EMI    H09 2836   0.229   0.151   0.582 -0.3234  0.5449 -0.3569
  150EMI    H08 2837  -0.049   0.179   0.560  0.0017  0.3901  0.0205
  150EMI    C05 2838  -0.129   0.445   0.633 -0.2803  1.3914  0.2669
  150EMI    H0B 2839  -0.118   0.543   0.591  0.7390  0.6187 -1.3662
  150EMI    H0C 2840  -0.191   0.383   0.570 -1.0508  1.9567  0.4575
  150EMI    H0D 2841  -0.169   0.436   0.734  1.5426 -2.0649  0.8393
  150EMI    N00 2842   0.003   0.380   0.625 -0.1867 -0.3483  0.1427
  150EMI    C06 2843   0.343   0.364   0.729  0.5540  0.2243 -0.3691
  150EMI    H0F 2844   0.377   0.262   0.737 -1.3861 -0.5803 -1.5798
  150EMI    C0N 2845   0.441   0.452   0.651 -0.0002  0.6024 -0.0117
  150EMI    H0O 2846   0.421   0.558   0.657 -2.2496  0.1499  3.0767
  150EMI    H0P 2847   0.537   0.438   0.699  0.0934 -2.0065 -0.8080
  150EMI    H0Q 2848   0.447   0.410   0.551  0.2029  0.9876 -0.1646
  150EMI    N02 2849   0.209   0.343   0.670  0.5547 -0.5314 -0.2866
  150EMI    H0E 2850   0.321   0.406   0.826 -0.8260  1.3307 -1.1139
  151EMI    C01 2851   2.189   1.701   4.199 -0.1157 -0.5467  0.1358
  151EMI    C04 2852   2.167   1.853   4.351  0.0698 -0.2377  0.5118
  151EMI    C03 2853   2.251   1.759   4.403  0.9691 -0.5868  0.4072
  151EMI    H07 2854   2.175   1.655   4.103  0.6688  0.0476 -0.2736
  151EMI    H09 2855   2.126   1.941   4.395 -0.1071  0.4522 -0.9825
  151EMI    H08 2856   2.292   1.752   4.501 -0.1654 -1.1886  0.8603
  151EMI    C05 2857   2.338   1.537   4.320 -0.4438 -0.2060 -0.3612
  151EMI    H0B 2858   2.436   1.561   4.360 -0.9272 -1.8188  1.9274
  151EMI    H0C 2859   2.303   1.461   4.387  0.2687 -0.8054 -0.6518
  151EMI    H0D 2860   2.349   1.492   4.222  1.1107  0.1892 -0.4079
  151EMI    N00 2861   2.254   1.657   4.309 -0.7380 -0.1166  0.0993
  151EMI    C06 2862   2.069   1.912   4.134  0.1551 -0.2936 -0.3441
  151EMI    H0F 2863   2.050   1.862   4.039 -0.5256 -0.2697 -0.2254
  151EMI    C0N 2864   1.949   1.980   4.201  0.0890  0.1225 -0.2750
  151EMI    H0O 2865   1.875   2.003   4.125  0.8935  0.0400 -1.0975
  151EMI    H0P 2866   1.904   1.927   4.284 -0.9322  1.2446 -0.0872
  151EMI    H0Q 2867   1.982   2.066   4.258 -1.3731 -0.2109  1.1356
  151EMI    N02 2868   2.137   1.817   4.225  0.1365 -0.3119 -0.0347
  151EMI    H0E 2869   2.140   1.991   4.113 -1.3748  1.0056 -0.7762
  152EMI    C01 2870   0.240   4.649   2.631 -0.1168  0.3640  0.0024
  152EMI    C04 2871   0.103   4.777   2.545  0.1040 -0.0673  0.2128
  152EMI    C03 2872   0.211   4.784   2.468 -0.3535 -0.6450  0.5468
  152EMI    H07 2873   0.290   4.590   2.705  0.6135  0.7827 -0.1508
  152EMI    H09 2874   0.003   4.810   2.525 -0.5975 -1.6491  0.9495
  152EMI    H08 2875   0.230   4.839   2.378 -1.8076 -1.4527 -0.2993
  152EMI    C05 2876   0.444   4.720   2.527 -0.0929  0.7855 -0.3969
  152EMI    H0B 2877   0.475   4.622   2.561 -0.8280  0.2648 -1.1700
  152EMI    H0C 2878   0.485   4.735   2.428  1.1608  1.8581  0.2569
  152EMI    H0D 2879   0.485   4.799   2.587 -2.2968  0.9027  1.0674
  152EMI    N00 2880   0.299   4.712   2.536 -0.3031  0.1116 -0.4792
  152EMI    C06 2881   0.022   4.616   2.722 -0.2473  0.1538 -0.3681
  152EMI    H0F 2882  -0.029   4.695   2.776  0.4222  1.2802 -1.3416
  152EMI    C0N 2883  -0.073   4.543   2.629  0.6747  0.0913  0.2650
  152EMI    H0O 2884  -0.129   4.616   2.571 -2.6400 -1.6442  1.0477
  152EMI    H0P 2885  -0.016   4.478   2.564  2.6531 -0.9364  2.8708
  152EMI    H0Q 2886  -0.147   4.480   2.678  0.8286  1.7464  2.8289
  152EMI    N02 2887   0.121   4.690   2.644 -0.4599 -0.5228 -0.4747
  152EMI    H0E 2888   0.065   4.554   2.799 -0.4515 -0.1235 -0.4735
  153EMI    C01 2889   3.969   0.538   1.607 -0.0886  0.6766 -0.9853
  153EMI    C04 2890   3.921   0.668   1.775 -1.2661 -0.4097 -0.5517
  153EMI    C03 2891   4.051   0.685   1.741  0.2174 -0.0844 -0.2503
  153EMI    H07 2892   3.956   0.453   1.544 -0.2055 -0.5956  0.6582
  153EMI    H09 2893   3.865   0.711   1.855 -0.3802  1.3591 -0.8337
  153EMI    H08 2894   4.125   0.743   1.791  1.6907 -2.8243  0.9749
  153EMI    C05 2895   4.204   0.611   1.557  0.3793  0.2914 -0.2659
  153EMI    H0B 2896   4.192   0.689   1.483 -0.4287  1.2537  0.8357
  153EMI    H0C 2897   4.284   0.639   1.623  0.9303  0.2862 -0.9232
  153EMI    H0D 2898   4.220   0.517   1.506  1.5195  0.3783 -0.0983
  153EMI    N00 2899   4.078   0.607   1.632 -0.4087  0.3604  0.3180
  153EMI    C06 2900   3.744   0.515   1.703  0.2381 -0.6690 -0.1784
  153EMI    H0F 2901   3.710   0.495   1.602 -1.6126 -0.7379  0.4148
  153EMI    C0N 2902   3.749   0.394   1.797 -0.4083 -0.3151  0.7333
  153EMI    H0O 2903   3.652   0.346   1.796 -0.9381  0.7355 -0.8869
  153EMI    H0P 2904   3.827   0.324   1.770 -0.3107 -0.0587  0.3460
  153EMI    H0Q 2905   3.770   0.438   1.895 -1.7706  1.2241  0.3857
  153EMI    N02 2906   3.875   0.571   1.694 -0.7395 -0.7517 -0.3854
  153EMI    H0E 2907   3.684   0.599   1.734 -0.0326 -0.9014 -0.0655
  154EMI    C01 2908   4.689   4.125   0.099 -0.3411  0.7563 -0.1884
  154EMI    C04 2909   4.665   3.943   0.218  0.1958 -0.8044  0.1582
  154EMI    C03 2910   4.766   3.925   0.133 -0.0827 -0.0873 -0.0901
  154EMI    H07 2911   4.665   4.219   0.055  1.8730  0.7695 -1.5136
  154EMI    H09 2912   4.619   3.880   0.292  1.0231 -0.9925  0.5265
  154EMI    H08 2913   4.826   3.838   0.115  0.5344 -0.0444  1.5740
  154EMI    C05 2914   4.909   4.070  -0.021 -0.0036 -0.1403 -0.2028
  154EMI    H0B 2915   4.876   4.119  -0.111  0.4669 -0.7283 -0.7066
  154EMI    H0C 2916   4.986   4.132   0.023  1.0759 -2.1957  0.9834
  154EMI    H0D 2917   4.959   3.982  -0.059  1.0322  1.5118 -2.8971
  154EMI    N00 2918   4.794   4.049   0.077  0.1298  0.2171  0.1193
  154EMI    C06 2919   4.499   4.143   0.262 -0.4038  0.0405 -0.6235
  154EMI    H0F 2920   4.532   4.241   0.294 -1.8851 -0.0214  1.2510
  154EMI    C0N 2921   4.371   4.129   0.179 -0.0901 -0.2550 -0.7289
  154EMI    H0O 2922   4.337   4.027   0.178  0.5699 -0.4857 -1.9829
  154EMI    H0P 2923   4.285   4.186   0.213  0.1464  0.4653 -1.3047
  154EMI    H0Q 2924   4.401   4.172   0.084  1.0463  2.1394  0.6139
  154EMI    N02 2925   4.620   4.074   0.200 -0.0621  0.0710 -0.1754
  154EMI    H0E 2926   4.487   4.102   0.361  1.0934 -1.5587 -1.0548
  155EMI    C01 2927   2.686   0.564   4.881  0.4252 -0.4845 -0.6476
  155EMI    C04 2928   2.628   0.524   5.088  0.8043 -0.2230 -0.1845
  155EMI    C03 2929   2.518   0.523   5.016 -0.1373  0.1415 -0.1918
  155EMI    H07 2930   2.748   0.564   4.794  1.6830 -1.5682  0.1995
  155EMI    H09 2931   2.637   0.502   5.192  0.9688  0.4482 -0.0556
  155EMI    H08 2932   2.416   0.498   5.033 -0.2486  1.0992  0.6313
  155EMI    C05 2933   2.463   0.550   4.779 -0.1455  0.3987  0.8525
  155EMI    H0B 2934   2.399   0.637   4.779 -0.2976  0.3177 -0.4695
  155EMI    H0C 2935   2.519   0.545   4.686 -1.0799 -0.2653  0.3081
  155EMI    H0D 2936   2.402   0.464   4.802  0.2134  0.3010  1.4556
  155EMI    N00 2937   2.553   0.556   4.888 -0.5211 -0.2201  0.3895
  155EMI    C06 2938   2.879   0.557   5.041  0.0668  0.1327 -0.7474
  155EMI    H0F 2939   2.915   0.645   5.092 -0.9462 -0.5517  1.2656
  155EMI    C0N 2940   2.920   0.429   5.101 -0.3104  0.9875 -0.7848
  155EMI    H0O 2941   2.885   0.350   5.035 -2.3132  2.1133 -1.1500
  155EMI    H0P 2942   3.028   0.421   5.110 -0.4501 -2.3170 -0.8964
  155EMI    H0Q 2943   2.878   0.426   5.200 -2.0212  2.5500 -1.4021
  155EMI    N02 2944   2.731   0.561   5.003  0.1070  0.3298  0.2790
  155EMI    H0E 2945   2.932   0.557   4.947  0.4736 -1.8020 -0.5467
  156EMI    C01 2946   3.268   1.462   0.392  0.2432 -0.0529  0.1806
  156EMI    C04 2947   3.219   1.628   0.533 -0.2930  0.2189  0.3880
  156EMI    C03 2948   3.343   1.586   0.559 -0.2164  0.4868  0.1610
  156EMI    H07 2949   3.246   1.391   0.314  0.6119 -0.1788  0.1872
  156EMI    H09 2950   3.165   1.710   0.574  0.3800  0.7169  0.3003
  156EMI    H08 2951   3.411   1.634   0.625  1.2493  0.0980 -1.0114
  156EMI    C05 2952   3.507   1.422   0.443  0.2973  0.0687  0.1909
  156EMI    H0B 2953   3.552   1.432   0.541 -0.0980  1.8108  0.2272
  156EMI    H0C 2954   3.509   1.316   0.424 -1.7721 -0.1390  0.8790
  156EMI    H0D 2955   3.562   1.482   0.373 -1.5102  0.4084 -1.0116
  156EMI    N00 2956   3.375   1.488   0.459  0.5799 -0.4356  0.5775
  156EMI    C06 2957   3.028   1.529   0.400  0.6455  0.7796 -0.0479
  156EMI    H0F 2958   3.019   1.443   0.335  0.1797  1.2831 -0.6605
  156EMI    C0N 2959   2.940   1.516   0.522 -0.2513  0.1288 -0.3598
  156EMI    H0O 2960   2.843   1.472   0.500 -1.6528  0.6217  3.8858
  156EMI    H0P 2961   2.997   1.451   0.588  0.7114  1.5641  0.2818
  156EMI    H0Q 2962   2.923   1.613   0.567 -0.7866 -0.1400  0.0308
  156EMI    N02 2963   3.171   1.544   0.433  0.2648  0.5339  0.0520
  156EMI    H0E 2964   2.997   1.612   0.338 -0.2669  1.6887  1.5464
  157EMI    C01 2965   0.117   0.031   4.987 -0.0492  0.3446 -0.4391
  157EMI    C04 2966   0.192  -0.074   5.173  0.5852  0.1807  0.9458
  157EMI    C03 2967   0.292  -0.012   5.109  0.8317 -0.2051 -0.2650
  157EMI    H07 2968   0.045   0.069   4.918 -0.0757  0.7106 -0.2144
  157EMI    H09 2969   0.175  -0.131   5.262  2.8022 -1.3591  0.4624
  157EMI    H08 2970   0.395  -0.012   5.136  0.8361 -2.2147 -0.0911
  157EMI    C05 2971   0.316   0.159   4.912  0.2721 -0.0912 -0.0178
  157EMI    H0B 2972   0.340   0.240   4.980 -0.1369 -1.4331  1.8070
  157EMI    H0C 2973   0.397   0.131   4.848  0.2057  1.4579 -0.8409
  157EMI    H0D 2974   0.240   0.188   4.841  2.8623 -0.0431 -2.9699
  157EMI    N00 2975   0.245   0.066   5.000  0.4174 -0.3484  0.3670
  157EMI    C06 2976  -0.058  -0.104   5.112  0.2484 -0.4641 -0.1795
  157EMI    H0F 2977  -0.131  -0.042   5.061  1.6064  0.3126 -1.2408
  157EMI    C0N 2978  -0.062  -0.245   5.050  0.4964 -0.0857 -0.2118
  157EMI    H0O 2979  -0.149  -0.302   5.078 -1.0192  1.7687 -0.9360
  157EMI    H0P 2980  -0.079  -0.234   4.943 -2.0880  2.8306  0.3398
  157EMI    H0Q 2981   0.029  -0.301   5.069  0.1277 -0.6799 -0.1943
  157EMI    N02 2982   0.082  -0.050   5.092  0.1291 -0.0573  0.2483
  157EMI    H0E 2983  -0.079  -0.097   5.218  0.4515  1.1234 -0.2221
  158EMI    C01 2984   3.864   3.098   0.004 -0.3821 -0.6909  0.5199
  158EMI    C04 2985   4.037   3.169  -0.098 -0.8468  0.1685  0.6805
  158EMI    C03 2986   4.026   3.041  -0.134  0.1331  0.7477  0.1433
  158EMI    H07 2987   3.788   3.103   0.079  1.8905  1.5116  2.9052
  158EMI    H09 2988   4.121   3.232  -0.118 -0.8967  0.0663  0.1171
  158EMI    H08 2989   4.083   2.988  -0.207 -0.6246  1.2383 -0.8481
  158EMI    C05 2990   3.841   2.871  -0.097 -0.3102  0.7466 -0.4391
  158EMI    H0B 2991   3.899   2.797  -0.043 -1.8094 -0.2162 -0.1073
  158EMI    H0C 2992   3.736   2.870  -0.072 -0.0121 -0.6132  0.9211
  158EMI    H0D 2993   3.827   2.854  -0.203 -1.0844 -0.9942 -0.1002
  158EMI    N00 2994   3.909   3.001  -0.077  0.0120 -0.1799 -0.0367
  158EMI    C06 2995   3.924   3.336   0.060  0.4413 -0.4270 -0.0796
  158EMI    H0F 2996   3.854   3.321   0.141  0.2686 -1.4041 -0.4040
  158EMI    C0N 2997   4.053   3.390   0.123 -0.0166 -0.0193 -0.5955
  158EMI    H0O 2998   4.033   3.477   0.185 -1.9555 -0.7572 -0.1004
  158EMI    H0P 2999   4.094   3.315   0.190 -1.7141 -1.3388 -0.9461
  158EMI    H0Q 3000   4.133   3.430   0.062  2.4430  0.1786  2.5133
  158EMI    N02 3001   3.936   3.205  -0.011 -0.4606 -0.6399  0.0908
  158EMI    H0E 3002   3.890   3.403  -0.018 -1.8087 -0.8500  0.4590
  159EMI    C01 3003   3.172   4.105   3.796  0.0091  0.1679 -0.9646
  159EMI    C04 3004   3.209   4.179   4.000  0.1075 -0.2523 -0.5655
  159EMI    C03 3005   3.129   4.266   3.939  0.0725 -0.7924 -0.4579
  159EMI    H07 3006   3.176   4.037   3.713 -0.0101  0.5366 -1.2673
  159EMI    H09 3007   3.248   4.170   4.099  0.6276 -1.6373 -0.8621
  159EMI    H08 3008   3.095   4.360   3.977  0.8473 -0.3969 -0.7136
  159EMI    C05 3009   3.011   4.288   3.714  0.1606  0.6325 -0.2898
  159EMI    H0B 3010   3.017   4.235   3.620  0.3103  1.8798 -1.0058
  159EMI    H0C 3011   2.907   4.275   3.740  0.3572 -3.6311 -0.8945
  159EMI    H0D 3012   3.036   4.393   3.709 -0.4626  0.8322  0.5615
  159EMI    N00 3013   3.105   4.221   3.812 -0.2576  0.4996 -0.0516
  159EMI    C06 3014   3.321   3.950   3.926  0.0124 -0.8142 -0.1304
  159EMI    H0F 3015   3.292   3.877   3.852  0.4396 -0.1734 -0.9540
  159EMI    C0N 3016   3.467   3.979   3.938  0.6775 -0.3450 -0.0712
  159EMI    H0O 3017   3.492   4.015   4.037  2.3259  1.3506 -1.0364
  159EMI    H0P 3018   3.523   3.887   3.923 -0.9943 -1.4062 -0.0559
  159EMI    H0Q 3019   3.511   4.041   3.861  1.1057 -0.4819  0.0621
  159EMI    N02 3020   3.237   4.074   3.913  0.7974  0.7072  0.8342
  159EMI    H0E 3021   3.283   3.918   4.021  1.1209 -3.5626 -0.5329
  160EMI    C01 3022   4.620   3.688   0.734  0.2754  0.3990  0.7485
  160EMI    C04 3023   4.834   3.714   0.698  0.7241  0.3442 -1.1941
  160EMI    C03 3024   4.819   3.731   0.833  0.0063 -0.5200  0.2365
  160EMI    H07 3025   4.516   3.681   0.710  0.3870  0.9999  0.0529
  160EMI    H09 3026   4.923   3.726   0.640 -0.7109  2.6085 -3.1772
  160EMI    H08 3027   4.881   3.761   0.915 -1.3953  2.4841  0.3284
  160EMI    C05 3028   4.601   3.728   0.971 -0.4823 -0.1415 -0.4010
  160EMI    H0B 3029   4.496   3.733   0.946 -0.2656 -0.5141 -1.4661
  160EMI    H0C 3030   4.620   3.635   1.021 -1.6323  1.1490  2.6549
  160EMI    H0D 3031   4.635   3.813   1.028 -0.1576 -1.1251  0.9120
  160EMI    N00 3032   4.678   3.714   0.851 -0.0509  0.2437 -0.5620
  160EMI    C06 3033   4.700   3.654   0.500  0.1448  0.1082 -0.2670
  160EMI    H0F 3034   4.613   3.712   0.474  1.2474  0.3011 -4.1941
  160EMI    C0N 3035   4.814   3.709   0.414  0.0595  0.2117  0.1253
  160EMI    H0O 3036   4.848   3.811   0.427 -0.0413  0.2733 -0.1016
  160EMI    H0P 3037   4.907   3.655   0.427 -0.6678 -1.2586 -0.5096
  160EMI    H0Q 3038   4.782   3.693   0.312 -0.8524 -1.0551  0.5880
  160EMI    N02 3039   4.712   3.685   0.639  0.3548  0.4886 -0.4805
  160EMI    H0E 3040   4.699   3.549   0.475 -1.4173  0.4587 -1.8459
  161EMI    C01 3041   0.524   4.234   4.035 -0.2189 -0.1263 -0.5517
  161EMI    C04 3042   0.574   4.094   4.198 -0.4069  0.2001 -0.3550
  161EMI    C03 3043   0.443   4.105   4.188 -0.2786 -0.4398  0.4266
  161EMI    H07 3044   0.535   4.311   3.962  0.7529  1.5367  1.2442
  161EMI    H09 3045   0.639   4.031   4.256  0.9370 -1.9345 -3.8507
  161EMI    H08 3046   0.370   4.052   4.247  2.6138 -5.6665 -0.0422
  161EMI    C05 3047   0.273   4.233   4.061  0.7399 -0.1259  0.4056
  161EMI    H0B 3048   0.229   4.149   4.009  0.5216 -0.6169  1.3584
  161EMI    H0C 3049   0.226   4.260   4.155 -1.1117  1.3932 -0.8758
  161EMI    H0D 3050   0.262   4.323   4.001  0.2527  0.1838  0.9515
  161EMI    N00 3051   0.413   4.197   4.089 -0.3799 -0.4515 -0.1216
  161EMI    C06 3052   0.766   4.230   4.137  0.4092  0.4150  0.3659
  161EMI    H0F 3053   0.791   4.226   4.241 -1.3218  0.7029  0.8278
  161EMI    C0N 3054   0.866   4.146   4.055  0.8254 -0.2900  0.0145
  161EMI    H0O 3055   0.834   4.131   3.952  2.8611 -0.8191 -0.5840
  161EMI    H0P 3056   0.967   4.184   4.063  1.5384 -1.8595 -1.2026
  161EMI    H0Q 3057   0.859   4.046   4.095  1.6240  0.1797  1.3918
  161EMI    N02 3058   0.627   4.185   4.113 -0.5822 -0.0927 -0.0756
  161EMI    H0E 3059   0.765   4.335   4.113 -0.2031 -0.1804 -2.7983
  162EMI    C01 3060   1.484   1.422   3.388 -0.0908 -0.4400 -0.4035
  162EMI    C04 3061   1.685   1.361   3.349  0.3187  0.2285  0.1189
  162EMI    C03 3062   1.662   1.366   3.483 -0.3910  0.3977  0.5441
  162EMI    H07 3063   1.380   1.444   3.374  0.0758 -0.9949 -3.0550
  162EMI    H09 3064   1.763   1.337   3.281 -1.5757 -1.0706 -1.7308
  162EMI    H08 3065   1.719   1.342   3.570  0.1247  2.0811  0.7021
  162EMI    C05 3066   1.473   1.446   3.629  0.2536  0.3587  0.3723
  162EMI    H0B 3067   1.532   1.505   3.699  0.3742  1.4556 -0.6191
  162EMI    H0C 3068   1.382   1.501   3.607 -0.0881 -0.5844 -0.6377
  162EMI    H0D 3069   1.449   1.351   3.673  0.4080 -0.2680 -0.8587
  162EMI    N00 3070   1.535   1.409   3.503  0.5087 -0.0821  0.1375
  162EMI    C06 3071   1.558   1.432   3.147  0.2845  0.4621  0.2122
  162EMI    H0F 3072   1.652   1.470   3.110  1.3203 -0.7990  1.4217
  162EMI    C0N 3073   1.520   1.300   3.080 -0.2315 -0.2599  0.3802
  162EMI    H0O 3074   1.595   1.223   3.078  1.2710  1.1241 -1.8189
  162EMI    H0P 3075   1.427   1.270   3.128 -0.0089  0.6801  1.4271
  162EMI    H0Q 3076   1.498   1.322   2.976  0.5235  1.4030  0.5304
  162EMI    N02 3077   1.571   1.402   3.292 -0.5798  0.0267  0.2909
  162EMI    H0E 3078   1.481   1.507   3.149  1.0384  1.2855 -0.7051
  163EMI    C01 3079   4.112   1.281   4.171 -1.0500 -0.2189  0.3036
  163EMI    C04 3080   4.039   1.422   4.017 -0.2407 -0.1075 -0.8059
  163EMI    C03 3081   4.063   1.301   3.959 -0.8137 -0.7996 -0.3849
  163EMI    H07 3082   4.147   1.246   4.265 -0.0226 -0.0404  0.0009
  163EMI    H09 3083   3.988   1.511   3.987 -0.6564 -0.3628 -0.8785
  163EMI    H08 3084   4.035   1.262   3.864 -0.7187  1.8173 -1.5806
  163EMI    C05 3085   4.155   1.081   4.038 -0.3663 -0.7049  0.6026
  163EMI    H0B 3086   4.253   1.075   3.992 -0.8990  1.7428 -1.0181
  163EMI    H0C 3087   4.167   1.028   4.132  4.0340  0.6060  1.0324
  163EMI    H0D 3088   4.086   1.028   3.974  0.8007 -0.8062 -0.6296
  163EMI    N00 3089   4.115   1.222   4.056 -0.0550 -0.1615 -0.3529
  163EMI    C06 3090   4.039   1.504   4.256 -0.6051  0.2376  0.8579
  163EMI    H0F 3091   4.062   1.607   4.235  0.5010 -0.1545  0.0055
  163EMI    C0N 3092   3.897   1.504   4.299 -0.3450  0.9328  0.0153
  163EMI    H0O 3093   3.880   1.574   4.380  2.3413  2.7701 -0.8653
  163EMI    H0P 3094   3.827   1.523   4.220 -0.1894  0.2422 -0.3004
  163EMI    H0Q 3095   3.865   1.404   4.327 -1.5855  0.4317 -2.9250
  163EMI    N02 3096   4.079   1.405   4.149 -0.4456  0.0486  0.2184
  163EMI    H0E 3097   4.105   1.473   4.337  0.5488 -2.0812 -0.8357
  164EMI    C01 3098   1.882   2.471   0.954 -0.4602 -0.4699 -1.0884
  164EMI    C04 3099   1.680   2.434   0.871  0.0676  0.3704 -0.2661
  164EMI    C03 3100   1.771   2.397   0.785 -0.8727  0.8877 -0.1457
  164EMI    H07 3101   1.952   2.516   1.021 -1.5802 -1.0713  0.5555
  164EMI    H09 3102   1.574   2.429   0.857  0.3057 -2.2629 -1.7024
  164EMI    H08 3103   1.763   2.339   0.695  1.2112 -3.3282  2.0639
  164EMI    C05 3104   2.017   2.370   0.754  0.0129  0.0509 -0.2800
  164EMI    H0B 3105   2.020   2.386   0.647  1.6168  0.1932 -0.2482
  164EMI    H0C 3106   2.106   2.422   0.788 -1.0632  1.6159  0.2489
  164EMI    H0D 3107   2.032   2.264   0.767 -1.0616 -0.1052 -0.2279
  164EMI    N00 3108   1.898   2.409   0.838 -0.7819 -1.2108  0.1711
  164EMI    C06 3109   1.682   2.533   1.100 -1.1235  0.2933 -0.0642
  164EMI    H0F 3110   1.615   2.459   1.143  0.3029 -0.9632  0.0639
  164EMI    C0N 3111   1.779   2.575   1.213  0.3553 -0.0588 -0.0645
  164EMI    H0O 3112   1.859   2.503   1.226 -0.6154 -0.7495  3.1016
  164EMI    H0P 3113   1.811   2.679   1.207  1.0583 -0.2319  0.4997
  164EMI    H0Q 3114   1.730   2.554   1.308  2.4236  1.8766  1.5545
  164EMI    N02 3115   1.749   2.478   0.978 -0.0222  0.3893 -0.5157
  164EMI    H0E 3116   1.622   2.619   1.075 -0.9351  0.3651 -0.2678
  165EMI    C01 3117   2.153   1.787   3.513 -0.0468  0.3784 -0.1191
  165EMI    C04 3118   2.197   1.627   3.373  0.2681 -0.1227  0.1784
  165EMI    C03 3119   2.305   1.703   3.383  0.5458  0.2752  0.4489
  165EMI    H07 3120   2.103   1.848   3.584  1.0728 -1.4985  2.4236
  165EMI    H09 3121   2.193   1.544   3.305  4.3357 -0.6474  0.3226
  165EMI    H08 3122   2.394   1.689   3.325  0.7445  1.0910  0.5403
  165EMI    C05 3123   2.370   1.911   3.500 -0.6167 -0.8974 -0.2864
  165EMI    H0B 3124   2.437   1.861   3.568 -0.1859  2.9900  2.5080
  165EMI    H0C 3125   2.414   1.960   3.415 -1.3100  0.9163  0.3488
  165EMI    H0D 3126   2.337   1.989   3.568  2.6001 -1.8270  2.6411
  165EMI    N00 3127   2.272   1.811   3.464 -0.3794 -0.2997 -0.2458
  165EMI    C06 3128   1.956   1.658   3.459 -0.6852 -0.2901  0.4201
  165EMI    H0F 3129   1.924   1.631   3.360 -0.0646 -0.0508  0.1496
  165EMI    C0N 3130   1.933   1.550   3.563 -0.5615 -0.4248 -0.3828
  165EMI    H0O 3131   1.828   1.554   3.587 -0.4286 -0.0495  0.1505
  165EMI    H0P 3132   1.969   1.449   3.546 -3.7862 -1.4058 -2.1853
  165EMI    H0Q 3133   1.993   1.577   3.649 -1.0363 -2.7580  0.7486
  165EMI    N02 3134   2.101   1.689   3.451 -0.3194  0.1375  0.1655
  165EMI    H0E 3135   1.906   1.754   3.472  0.0735 -0.1326  2.6337
  166EMI    C01 3136   0.922   0.642   3.329  0.4258  0.0217 -0.1117
  166EMI    C04 3137   0.708   0.631   3.296  0.3187  0.0087 -0.0879
  166EMI    C03 3138   0.738   0.760   3.310 -0.2739  0.0121  0.3145
  166EMI    H07 3139   1.028   0.630   3.339  0.9179  1.1362 -3.1703
  166EMI    H09 3140   0.617   0.583   3.267 -0.4498  0.2744  1.7129
  166EMI    H08 3141   0.685   0.852   3.304 -0.7324 -0.3167 -0.9689
  166EMI    C05 3142   0.931   0.879   3.395 -0.1210  0.5148 -0.0558
  166EMI    H0B 3143   1.026   0.844   3.433 -0.7456 -1.1129  0.1005
  166EMI    H0C 3144   0.953   0.941   3.310  0.9065 -0.0307 -0.2049
  166EMI    H0D 3145   0.873   0.913   3.480 -0.8439 -0.6932 -0.0444
  166EMI    N00 3146   0.871   0.764   3.332 -0.0844 -0.5760  0.2703
  166EMI    C06 3147   0.836   0.411   3.323  0.4189 -0.0175  0.2468
  166EMI    H0F 3148   0.913   0.382   3.254 -0.1704 -0.8369 -0.0819
  166EMI    C0N 3149   0.867   0.372   3.468 -0.1465 -0.2952 -0.5802
  166EMI    H0O 3150   0.953   0.426   3.508  0.7030 -1.6719 -0.4895
  166EMI    H0P 3151   0.780   0.398   3.526 -0.3652 -0.9758 -0.6066
  166EMI    H0Q 3152   0.879   0.265   3.474 -0.1896 -0.2525  0.3325
  166EMI    N02 3153   0.822   0.555   3.305  0.1514 -0.7944 -0.0221
  166EMI    H0E 3154   0.748   0.362   3.283  0.2468  0.7460 -0.3320
  167EMI    C01 3155   0.831   4.136   5.008 -0.5694 -0.3439  0.6534
  167EMI    C04 3156   0.796   4.193   5.216 -0.1990 -0.1962  0.5306
  167EMI    C03 3157   0.821   4.303   5.149 -0.3506 -0.5336  0.2583
  167EMI    H07 3158   0.844   4.075   4.922 -2.5463  0.5513 -0.3214
  167EMI    H09 3159   0.777   4.188   5.321 -0.2777 -1.0658  0.4827
  167EMI    H08 3160   0.829   4.405   5.181  0.6854 -1.3767  3.0306
  167EMI    C05 3161   0.889   4.356   4.908  0.3638  0.1390  0.3922
  167EMI    H0B 3162   0.916   4.300   4.820 -1.6589  0.1557 -0.3049
  167EMI    H0C 3163   0.810   4.429   4.891  1.0883  0.7506 -0.4869
  167EMI    H0D 3164   0.981   4.407   4.931  0.1630  0.4698  0.4836
  167EMI    N00 3165   0.848   4.271   5.019  0.6857  0.3975 -0.0125
  167EMI    C06 3166   0.759   3.943   5.156 -0.0419  0.0161 -0.8265
  167EMI    H0F 3167   0.708   3.917   5.065 -2.6205  0.2807  0.4560
  167EMI    C0N 3168   0.876   3.859   5.209  0.6056 -0.4306  0.3659
  167EMI    H0O 3169   0.841   3.779   5.272 -0.0643  0.4267  1.1166
  167EMI    H0P 3170   0.940   3.829   5.127  1.1868 -2.5264  1.5212
  167EMI    H0Q 3171   0.929   3.933   5.268 -1.3620  1.3638  0.0041
  167EMI    N02 3172   0.797   4.085   5.127 -0.1646  0.1413  0.5734
  167EMI    H0E 3173   0.682   3.953   5.231  0.4085  1.3335 -0.5094
  168EMI    C01 3174   3.201   3.713   0.070 -0.0242 -0.1920 -0.0551
  168EMI    C04 3175   3.126   3.561  -0.068 -0.3441  0.5304 -0.6344
  168EMI    C03 3176   3.225   3.504  -0.002 -0.5108  0.0937 -0.9750
  168EMI    H07 3177   3.224   3.806   0.118  0.1830  0.4902 -1.4212
  168EMI    H09 3178   3.065   3.502  -0.132  1.7754 -3.0069  0.3478
  168EMI    H08 3179   3.244   3.399   0.007 -0.4221  0.1982  0.2723
  168EMI    C05 3180   3.391   3.586   0.162  0.4906 -0.8955 -0.0975
  168EMI    H0B 3181   3.360   3.544   0.257 -0.5226 -2.2808 -1.0052
  168EMI    H0C 3182   3.468   3.526   0.115  0.2753 -0.5037 -0.9704
  168EMI    H0D 3183   3.437   3.680   0.188 -0.6903 -0.7140  1.4980
  168EMI    N00 3184   3.278   3.606   0.079 -0.2304 -0.4707 -0.2669
  168EMI    C06 3185   3.017   3.785  -0.091 -0.9881  0.2506 -0.3803
  168EMI    H0F 3186   2.935   3.721  -0.120 -0.5986 -0.1003 -0.7167
  168EMI    C0N 3187   2.981   3.893   0.010 -0.2106 -0.4631 -1.1062
  168EMI    H0O 3188   2.902   3.960  -0.022  1.0169  1.7264  0.1366
  168EMI    H0P 3189   2.967   3.848   0.108  2.1962 -0.7571 -0.8147
  168EMI    H0Q 3190   3.060   3.966   0.028  0.3793 -1.2108 -0.5540
  168EMI    N02 3191   3.115   3.696  -0.027 -0.1150  1.1152 -0.3974
  168EMI    H0E 3192   3.068   3.826  -0.177  0.3557  1.0173  0.7290
  169EMI    C01 3193   1.954   1.347   1.470 -0.2339 -0.0270 -0.2430
  169EMI    C04 3194   2.140   1.403   1.562  0.2990 -0.6271 -0.5700
  169EMI    C03 3195   2.050   1.501   1.598  0.0037  0.0516  0.9322
  169EMI    H07 3196   1.888   1.288   1.410  0.2257 -1.6673  0.7892
  169EMI    H09 3197   2.240   1.400   1.602 -0.1208 -1.2763  0.4736
  169EMI    H08 3198   2.062   1.591   1.654  2.1149  0.0706  0.5131
  169EMI    C05 3199   1.800   1.525   1.538  0.2801 -0.6775 -0.0562
  169EMI    H0B 3200   1.761   1.557   1.443 -1.5117  0.0877  0.8656
  169EMI    H0C 3201   1.730   1.459   1.588  0.1946 -0.5133  0.0407
  169EMI    H0D 3202   1.798   1.613   1.601  0.9039 -0.1255 -0.7916
  169EMI    N00 3203   1.928   1.460   1.538  0.1289  0.3466  0.6232
  169EMI    C06 3204   2.129   1.192   1.430  0.0760 -0.5996 -0.5933
  169EMI    H0F 3205   2.131   1.198   1.322 -1.0117  0.0586 -0.6003
  169EMI    C0N 3206   2.272   1.160   1.483 -0.5151 -0.3767 -0.0976
  169EMI    H0O 3207   2.298   1.062   1.444 -0.1658  1.0446 -3.9234
  169EMI    H0P 3208   2.347   1.233   1.454  0.4308 -1.5280 -0.6916
  169EMI    H0Q 3209   2.274   1.151   1.591  0.2771  1.8858  0.1188
  169EMI    N02 3210   2.077   1.315   1.488  0.3279 -0.4670  0.4799
  169EMI    H0E 3211   2.064   1.112   1.464 -0.7234  0.0151 -0.6392
  170EMI    C01 3212   4.410   3.150   4.793 -0.8422 -0.4686  0.3981
  170EMI    C04 3213   4.415   3.193   4.999 -0.4625 -0.1242  0.1126
  170EMI    C03 3214   4.405   3.306   4.940 -0.0948 -0.0539  0.2942
  170EMI    H07 3215   4.406   3.097   4.700 -0.4424  0.2244 -0.0214
  170EMI    H09 3216   4.418   3.168   5.103 -1.6740  1.2745  0.5158
  170EMI    H08 3217   4.392   3.406   4.978  2.8071 -0.1453  1.7677
  170EMI    C05 3218   4.387   3.389   4.705 -0.1885  1.1415 -0.5695
  170EMI    H0B 3219   4.341   3.345   4.618 -0.9264 -1.4721  1.0296
  170EMI    H0C 3220   4.319   3.466   4.741  1.7084  2.1128  1.1617
  170EMI    H0D 3221   4.486   3.428   4.686  0.8648 -1.0091  0.2122
  170EMI    N00 3222   4.401   3.284   4.804  0.0858 -0.1683 -0.9569
  170EMI    C06 3223   4.427   2.956   4.940 -0.3365 -0.7000 -0.4390
  170EMI    H0F 3224   4.330   2.926   4.977 -1.1335 -1.1830 -2.7548
  170EMI    C0N 3225   4.476   2.874   4.822  0.4562 -0.5534  0.4548
  170EMI    H0O 3226   4.384   2.865   4.765  0.1984 -1.1184  0.9440
  170EMI    H0P 3227   4.558   2.922   4.770 -0.3262  1.1562  0.7349
  170EMI    H0Q 3228   4.511   2.776   4.852  1.8309  0.5618  2.7581
  170EMI    N02 3229   4.416   3.094   4.908  0.2342 -0.5239 -0.3470
  170EMI    H0E 3230   4.507   2.943   5.012  0.4637 -2.7660 -1.6103
  171EMI    C01 3231   4.827   0.783   0.696  1.0939 -0.4571 -0.2652
  171EMI    C04 3232   4.709   0.626   0.798  0.4200  0.2024  0.6336
  171EMI    C03 3233   4.805   0.657   0.881  0.1500  0.4162  0.2510
  171EMI    H07 3234   4.848   0.866   0.632  0.7882  0.6760  1.0353
  171EMI    H09 3235   4.629   0.556   0.803 -0.5551  0.7782 -3.2512
  171EMI    H08 3236   4.840   0.613   0.972  1.0570 -2.1713 -1.2486
  171EMI    C05 3237   4.996   0.812   0.876 -1.3723  0.0786 -0.0684
  171EMI    H0B 3238   5.087   0.768   0.842  0.1491  1.1274  2.3420
  171EMI    H0C 3239   4.988   0.920   0.870 -0.8998  0.3741  2.8914
  171EMI    H0D 3240   4.990   0.791   0.982 -1.2101  1.6677  0.2926
  171EMI    N00 3241   4.876   0.757   0.817 -0.3029 -0.1937  0.9419
  171EMI    C06 3242   4.625   0.698   0.576  0.8170 -0.3467  0.7387
  171EMI    H0F 3243   4.646   0.754   0.486 -1.1731 -2.3943 -1.1487
  171EMI    C0N 3244   4.600   0.573   0.507  0.1511 -0.9335  0.0443
  171EMI    H0O 3245   4.547   0.505   0.573  0.0332 -1.2943 -0.4153
  171EMI    H0P 3246   4.538   0.591   0.420  0.8028  1.6884  0.0296
  171EMI    H0Q 3247   4.693   0.527   0.473  1.0925  0.4192  0.6825
  171EMI    N02 3248   4.723   0.698   0.682  0.1318 -0.4735  0.6024
  171EMI    H0E 3249   4.535   0.744   0.615 -0.1680  0.9431 -2.6490
  172EMI    C01 3250   2.802   3.647   3.427 -0.1433  0.1444  0.0337
  172EMI    C04 3251   2.747   3.437   3.417 -0.5434 -0.2599  0.1094
  172EMI    C03 3252   2.646   3.507   3.463  0.5315  0.2614  0.5099
  172EMI    H07 3253   2.846   3.741   3.403 -4.4050  2.2150 -0.6722
  172EMI    H09 3254   2.747   3.333   3.397 -2.2408 -0.0701 -1.0255
  172EMI    H08 3255   2.548   3.478   3.496  0.3062  2.6921  2.2467
  172EMI    C05 3256   2.598   3.744   3.526  0.4780  0.5088  0.0407
  172EMI    H0B 3257   2.495   3.714   3.537  0.5473  0.7794  1.6342
  172EMI    H0C 3258   2.622   3.767   3.629  0.1819 -1.8553  0.7132
  172EMI    H0D 3259   2.605   3.835   3.468  1.0897 -0.1247 -0.9153
  172EMI    N00 3260   2.683   3.638   3.474 -0.2629  0.0063  0.3088
  172EMI    C06 3261   2.966   3.512   3.318 -0.1670  0.1343  0.2909
  172EMI    H0F 3262   2.980   3.598   3.254  3.1349 -1.7833 -1.8789
  172EMI    C0N 3263   3.081   3.472   3.399 -0.7010  0.1387 -0.2772
  172EMI    H0O 3264   3.076   3.513   3.499  0.9031  1.4724 -0.7072
  172EMI    H0P 3265   3.096   3.365   3.407 -2.0902 -0.1676 -1.3089
  172EMI    H0Q 3266   3.168   3.516   3.352 -1.0622  1.5119  0.2796
  172EMI    N02 3267   2.847   3.528   3.400 -0.1852  0.3451 -0.4115
  172EMI    H0E 3268   2.927   3.430   3.258  0.6563 -0.8764  1.0925
  173EMI    C01 3269   3.761   3.220   3.790 -0.7001 -0.2411  0.1029
  173EMI    C04 3270   3.932   3.086   3.774 -0.1440  0.0772 -0.0357
  173EMI    C03 3271   3.849   3.035   3.868 -0.5508 -0.2743 -0.4005
  173EMI    H07 3272   3.699   3.306   3.778  3.0802  2.5004 -2.1480
  173EMI    H09 3273   4.026   3.049   3.740  0.3733  1.1657  0.1479
  173EMI    H08 3274   3.850   2.944   3.924 -0.7441 -1.7641 -2.7175
  173EMI    C05 3275   3.615   3.093   3.942 -0.0650 -0.3935  0.1515
  173EMI    H0B 3276   3.540   3.062   3.870  0.9140  0.5592 -1.3435
  173EMI    H0C 3277   3.618   3.016   4.018 -3.0625 -0.9987 -0.2318
  173EMI    H0D 3278   3.583   3.182   3.993 -2.3491 -1.1791  0.2018
  173EMI    N00 3279   3.741   3.120   3.871  0.2143  0.6657  0.1332
  173EMI    C06 3280   3.939   3.305   3.646 -0.3251  0.2071  0.3068
  173EMI    H0F 3281   4.013   3.241   3.600 -2.3512 -1.2458 -1.1112
  173EMI    C0N 3282   3.862   3.333   3.520  0.1145 -0.0660  0.1806
  173EMI    H0O 3283   3.790   3.413   3.529 -2.2428 -2.0372 -0.1079
  173EMI    H0P 3284   3.945   3.360   3.455 -1.7626  1.4339 -1.7217
  173EMI    H0Q 3285   3.802   3.247   3.492 -0.7403 -0.0881  1.9092
  173EMI    N02 3286   3.882   3.212   3.742  0.1809 -0.7385  0.0808
  173EMI    H0E 3287   3.995   3.389   3.685  0.1279  1.3362 -2.5054
  174EMI    C01 3288   3.751   1.438   1.908 -1.1146  0.2344 -0.5358
  174EMI    C04 3289   3.695   1.334   1.730  0.1069  0.6664 -0.0499
  174EMI    C03 3290   3.618   1.287   1.825 -0.0258  0.2846 -0.1397
  174EMI    H07 3291   3.805   1.503   1.973 -1.8410  0.1836  0.1359
  174EMI    H09 3292   3.698   1.308   1.626 -0.5927 -0.1479  0.1208
  174EMI    H08 3293   3.534   1.220   1.826 -0.6982  1.0761  2.2863
  174EMI    C05 3294   3.599   1.342   2.078  0.5250 -0.3674  0.5479
  174EMI    H0B 3295   3.507   1.398   2.069  1.9357  1.9586 -0.3209
  174EMI    H0C 3296   3.598   1.235   2.095  0.5636 -0.4831 -0.1442
  174EMI    H0D 3297   3.659   1.400   2.147 -0.0759  1.1282 -0.1384
  174EMI    N00 3298   3.657   1.355   1.938  0.0652 -0.4193  0.1070
  174EMI    C06 3299   3.900   1.483   1.711  0.1697 -0.5705 -0.6054
  174EMI    H0F 3300   3.912   1.580   1.759  2.4613 -1.4558  0.8005
  174EMI    C0N 3301   4.026   1.399   1.732  0.1782 -0.2981  0.5015
  174EMI    H0O 3302   4.112   1.442   1.683 -0.0669 -0.6095 -0.2236
  174EMI    H0P 3303   4.028   1.367   1.835 -1.4888 -2.1469  0.0348
  174EMI    H0Q 3304   4.004   1.305   1.682  1.8959 -1.1731  1.3119
  174EMI    N02 3305   3.786   1.424   1.782  0.7050  0.1686 -0.1884
  174EMI    H0E 3306   3.873   1.506   1.609 -0.5530 -0.4757 -0.3956
  175EMI    C01 3307   0.437   4.542   1.663  0.0566 -0.2333  0.1114
  175EMI    C04 3308   0.622   4.585   1.556 -0.0686  0.1228  0.3796
  175EMI    C03 3309   0.552   4.697   1.572  0.7451 -0.1581  0.0815
  175EMI    H07 3310   0.368   4.494   1.728  2.8174  0.0370  3.5312
  175EMI    H09 3311   0.716   4.554   1.516 -0.1182  0.6222 -0.1314
  175EMI    H08 3312   0.575   4.798   1.545  0.5792  0.1794  1.1391
  175EMI    C05 3313   0.330   4.763   1.679  0.0128  0.2227 -0.3813
  175EMI    H0B 3314   0.370   4.831   1.752  0.1419 -0.9177  0.6537
  175EMI    H0C 3315   0.278   4.822   1.606 -0.9824  1.6960  1.4404
  175EMI    H0D 3316   0.244   4.704   1.709  0.5227 -0.1953  0.2949
  175EMI    N00 3317   0.432   4.665   1.630 -0.3356 -0.7627 -0.0584
  175EMI    C06 3318   0.574   4.338   1.599  0.4510 -0.7462  0.1514
  175EMI    H0F 3319   0.660   4.336   1.533 -0.0110  1.1836 -0.5494
  175EMI    C0N 3320   0.616   4.290   1.730  0.1906 -0.1653  0.2301
  175EMI    H0O 3321   0.707   4.347   1.748 -0.3518 -0.0064  2.9039
  175EMI    H0P 3322   0.536   4.330   1.791 -1.2401  0.3311 -1.8664
  175EMI    H0Q 3323   0.631   4.182   1.737  2.0172  0.0008 -0.4217
  175EMI    N02 3324   0.539   4.484   1.606 -0.0288 -0.1888  0.2111
  175EMI    H0E 3325   0.497   4.273   1.559 -0.0329 -2.2736  3.2296
  176EMI    C01 3326   0.559   1.928   2.614  0.5568  0.2000 -0.3547
  176EMI    C04 3327   0.727   1.818   2.549 -0.4780 -0.2957  0.1765
  176EMI    C03 3328   0.759   1.945   2.564  0.2608  0.8131  0.8428
  176EMI    H07 3329   0.460   1.953   2.645 -0.4031 -4.1642  0.7600
  176EMI    H09 3330   0.793   1.740   2.519  0.7500  0.7756  0.0191
  176EMI    H08 3331   0.851   1.993   2.540 -0.5541  2.2832  0.5369
  176EMI    C05 3332   0.627   2.163   2.595  0.1173 -0.1491  0.2029
  176EMI    H0B 3333   0.574   2.186   2.686  0.9487 -0.2723  0.7279
  176EMI    H0C 3334   0.719   2.219   2.597  0.9713 -1.5506  1.4317
  176EMI    H0D 3335   0.563   2.201   2.516 -0.8091 -0.3574  0.8332
  176EMI    N00 3336   0.650   2.016   2.592 -0.1092 -0.0942  0.4501
  176EMI    C06 3337   0.516   1.690   2.565 -0.3595 -0.6047 -0.6527
  176EMI    H0F 3338   0.422   1.718   2.522 -0.8836 -1.4310 -0.0731
  176EMI    C0N 3339   0.587   1.598   2.466  0.1863  0.0090 -0.5837
  176EMI    H0O 3340   0.593   1.655   2.374  1.1331  1.9211  0.5923
  176EMI    H0P 3341   0.684   1.560   2.498  0.4337  0.8413 -0.3127
  176EMI    H0Q 3342   0.519   1.519   2.436 -0.1451 -0.1939  0.6294
  176EMI    N02 3343   0.596   1.807   2.592  0.0800 -0.3519 -0.4859
  176EMI    H0E 3344   0.503   1.649   2.664  3.9175  1.4205  1.0449
  177EMI    C01 3345   1.711   2.878   0.829 -1.2041 -0.2251  0.0932
  177EMI    C04 3346   1.535   2.763   0.866  0.5890 -0.4981 -0.2765
  177EMI    C03 3347   1.593   2.716   0.764 -0.2887  0.4092  0.4148
  177EMI    H07 3348   1.794   2.945   0.822 -0.5550 -1.0587 -0.4008
  177EMI    H09 3349   1.436   2.738   0.897  0.2429  0.5746 -0.4719
  177EMI    H08 3350   1.567   2.640   0.694  3.6007 -1.2971  0.5408
  177EMI    C05 3351   1.811   2.739   0.646 -0.2468 -0.0634  0.1815
  177EMI    H0B 3352   1.765   2.726   0.549  0.3337  0.0832 -0.1180
  177EMI    H0C 3353   1.893   2.807   0.663 -0.5076  0.0776  0.9207
  177EMI    H0D 3354   1.857   2.644   0.673  0.0474  0.0971  0.2518
  177EMI    N00 3355   1.716   2.772   0.750  0.5807 -0.3198 -0.0636
  177EMI    C06 3356   1.570   2.959   1.022  0.0047 -0.2192 -0.6613
  177EMI    H0F 3357   1.473   2.995   0.992  0.7342  0.4035 -2.3774
  177EMI    C0N 3358   1.571   2.879   1.144  0.4714 -0.8582  0.4227
  177EMI    H0O 3359   1.486   2.813   1.127 -0.9125  1.0673 -0.5289
  177EMI    H0P 3360   1.664   2.825   1.156  0.0468 -1.5331  0.8098
  177EMI    H0Q 3361   1.557   2.937   1.234 -0.5040  0.1523 -0.3519
  177EMI    N02 3362   1.607   2.876   0.909 -0.1580  0.5827  0.2489
  177EMI    H0E 3363   1.644   3.038   1.028 -0.3795  0.1076 -0.1548
  178EMI    C01 3364   5.024   4.153   0.503 -0.0236  0.6605  0.4313
  178EMI    C04 3365   5.107   4.133   0.308 -0.9132  0.2924  0.5600
  178EMI    C03 3366   5.038   4.246   0.308  0.1054 -0.2815  0.2104
  178EMI    H07 3367   5.001   4.131   0.605  0.6800 -0.9262  0.2757
  178EMI    H09 3368   5.166   4.088   0.230 -2.2582  0.0705 -0.3627
  178EMI    H08 3369   5.032   4.321   0.232  2.6426  0.7537  0.9258
  178EMI    C05 3370   4.884   4.360   0.480 -1.1895  0.2550 -0.0271
  178EMI    H0B 3371   4.790   4.308   0.495 -2.5984  1.7490 -2.9003
  178EMI    H0C 3372   4.911   4.401   0.576 -1.0090 -1.4244  0.6861
  178EMI    H0D 3373   4.883   4.431   0.399 -0.3012 -1.0855 -1.2603
  178EMI    N00 3374   4.984   4.260   0.436 -0.1172 -0.5790 -0.1187
  178EMI    C06 3375   5.152   3.939   0.464 -0.2936 -0.5836  0.2590
  178EMI    H0F 3376   5.111   3.856   0.408 -1.6663 -0.1834  0.6291
  178EMI    C0N 3377   5.303   3.946   0.454  0.2804 -0.1874  0.0892
  178EMI    H0O 3378   5.339   3.847   0.482 -3.1478 -1.4435  0.4950
  178EMI    H0P 3379   5.340   3.980   0.358  0.4185  1.2953  0.6532
  178EMI    H0Q 3380   5.336   4.012   0.534  2.3510 -1.9850  0.8385
  178EMI    N02 3381   5.091   4.068   0.425 -0.4295  0.0026 -0.1443
  178EMI    H0E 3382   5.150   3.911   0.568  3.2824  0.5229  0.7280
  179EMI    C01 3383   3.770   1.726   3.523  0.0152  0.2589  0.2679
  179EMI    C04 3384   3.613   1.756   3.665  0.6754  0.1047 -0.1652
  179EMI    C03 3385   3.577   1.653   3.583  0.1487  0.4080  0.0169
  179EMI    H07 3386   3.868   1.739   3.480 -0.0262  3.4216  0.8928
  179EMI    H09 3387   3.567   1.798   3.751  1.6173  0.0417  0.3848
  179EMI    H08 3388   3.493   1.587   3.590 -1.1995  2.0265 -0.3824
  179EMI    C05 3389   3.712   1.530   3.393 -0.3273 -0.3813 -0.4786
  179EMI    H0B 3390   3.760   1.459   3.460 -2.0464 -1.5154 -0.4030
  179EMI    H0C 3391   3.625   1.480   3.353 -0.7286 -1.6749  1.7961
  179EMI    H0D 3392   3.770   1.565   3.309 -1.3135  0.9236 -0.6326
  179EMI    N00 3393   3.682   1.639   3.492  0.5719  0.2085  0.6433
  179EMI    C06 3394   3.823   1.887   3.707  0.7833 -0.6168  0.4343
  179EMI    H0F 3395   3.910   1.901   3.644 -0.5242 -1.9128 -1.7926
  179EMI    C0N 3396   3.766   2.029   3.692  0.2490  0.7469 -0.0419
  179EMI    H0O 3397   3.839   2.096   3.737  0.1009 -0.1471  1.5973
  179EMI    H0P 3398   3.760   2.054   3.587 -1.0498 -1.0655 -0.4551
  179EMI    H0Q 3399   3.680   2.057   3.751  0.6282  0.3640  0.7142
  179EMI    N02 3400   3.737   1.796   3.626  0.1982 -0.3615 -0.2286
  179EMI    H0E 3401   3.843   1.853   3.808 -0.2269 -1.8333  0.2516
  180EMI    C01 3402   3.795   3.442   1.304  0.0653  0.8315  1.0855
  180EMI    C04 3403   3.771   3.329   1.122 -0.5477 -0.5027 -0.3214
  180EMI    C03 3404   3.887   3.393   1.114 -0.0677  0.6349 -0.4582
  180EMI    H07 3405   3.777   3.482   1.401  0.4346 -0.6790  1.7999
  180EMI    H09 3406   3.746   3.251   1.052 -1.7113 -0.6995  0.2845
  180EMI    H08 3407   3.968   3.388   1.045  0.6384  1.3575  0.2969
  180EMI    C05 3408   4.008   3.566   1.243 -0.4891 -0.1720 -0.2696
  180EMI    H0B 3409   4.009   3.597   1.347  2.5164 -1.1509  0.1098
  180EMI    H0C 3410   4.097   3.510   1.218 -0.8203 -0.6015 -0.4943
  180EMI    H0D 3411   4.006   3.652   1.179 -0.4358 -1.8383 -2.6163
  180EMI    N00 3412   3.897   3.476   1.223  0.5334 -0.4288 -0.0524
  180EMI    C06 3413   3.593   3.291   1.301  0.1488 -0.3113 -0.2011
  180EMI    H0F 3414   3.545   3.364   1.366 -1.5572 -0.3756 -1.3245
  180EMI    C0N 3415   3.499   3.249   1.180 -0.0272  0.2226 -0.4984
  180EMI    H0O 3416   3.544   3.175   1.115  3.9203  1.1208  0.8871
  180EMI    H0P 3417   3.408   3.208   1.222  0.1736 -1.3448 -1.5187
  180EMI    H0Q 3418   3.471   3.337   1.123  2.0780  0.2710 -1.5655
  180EMI    N02 3419   3.719   3.347   1.251 -0.6232  0.0285  0.8848
  180EMI    H0E 3420   3.609   3.206   1.365 -0.5488 -1.0887 -1.0327
  181EMI    C01 3421   3.692   0.572   4.986 -0.0596 -0.3929 -0.1625
  181EMI    C04 3422   3.556   0.553   4.821  0.6234 -0.6205  0.2069
  181EMI    C03 3423   3.504   0.634   4.913 -0.0127  0.5472 -0.2589
  181EMI    H07 3424   3.781   0.575   5.045  0.7713  2.5232 -1.4111
  181EMI    H09 3425   3.514   0.513   4.732 -3.5730  0.9027  1.2528
  181EMI    H08 3426   3.414   0.690   4.904 -1.1518 -1.2490 -0.6094
  181EMI    C05 3427   3.552   0.695   5.148  0.7912  0.7986 -0.3249
  181EMI    H0B 3428   3.560   0.630   5.234  0.4498  2.5771  1.1275
  181EMI    H0C 3429   3.618   0.779   5.168 -1.4445  2.4193  0.6477
  181EMI    H0D 3430   3.452   0.734   5.140 -0.7046 -2.8250 -1.2288
  181EMI    N00 3431   3.584   0.632   5.023  0.3008  0.0536  0.0399
  181EMI    C06 3432   3.777   0.417   4.809 -0.2328  0.9202 -0.4312
  181EMI    H0F 3433   3.868   0.417   4.868  0.7179 -2.2414 -1.6795
  181EMI    C0N 3434   3.729   0.269   4.807  0.7875  0.3466 -0.2896
  181EMI    H0O 3435   3.739   0.216   4.901 -1.9431 -0.9708 -0.6467
  181EMI    H0P 3436   3.625   0.269   4.774  0.9720 -1.2695 -1.0034
  181EMI    H0Q 3437   3.797   0.217   4.740 -0.1674  0.7582 -1.6356
  181EMI    N02 3438   3.682   0.517   4.870  0.5890 -0.2657  0.4038
  181EMI    H0E 3439   3.815   0.466   4.721  2.3667  0.1318  0.1711
  182EMI    C01 3440   3.443   4.804   3.407 -0.0950 -0.6803 -0.8225
  182EMI    C04 3441   3.542   4.921   3.257 -0.0012  0.3247 -0.6830
  182EMI    C03 3442   3.635   4.849   3.325  0.4759 -0.8692 -0.4102
  182EMI    H07 3443   3.373   4.771   3.481  0.5946  1.6472  0.9889
  182EMI    H09 3444   3.560   4.989   3.177  2.0190  1.2860  0.5219
  182EMI    H08 3445   3.741   4.841   3.311  0.5591 -0.5270  0.0140
  182EMI    C05 3446   3.624   4.693   3.519  0.3159  0.1658  0.5559
  182EMI    H0B 3447   3.666   4.601   3.481 -0.4068  0.3540 -0.7482
  182EMI    H0C 3448   3.707   4.745   3.566  0.0534  0.1447  1.0563
  182EMI    H0D 3449   3.539   4.669   3.581  0.3681 -0.8744  0.2383
  182EMI    N00 3450   3.566   4.772   3.417 -0.8215  0.1307  0.1256
  182EMI    C06 3451   3.287   4.945   3.268 -0.2477 -0.2168 -0.3055
  182EMI    H0F 3452   3.307   5.049   3.248 -1.2448  0.5995  2.4089
  182EMI    C0N 3453   3.237   4.881   3.142 -0.6008  0.4652  0.6210
  182EMI    H0O 3454   3.134   4.911   3.125 -0.6999  0.0600  0.4924
  182EMI    H0P 3455   3.293   4.900   3.051  0.7432 -0.9307  1.0976
  182EMI    H0Q 3456   3.243   4.774   3.161 -0.4211  1.0152  4.1695
  182EMI    N02 3457   3.419   4.888   3.311 -0.1717  0.0713  0.3409
  182EMI    H0E 3458   3.219   4.930   3.351 -2.2430  1.0370 -1.6288
  183EMI    C01 3459   2.149   4.865   4.829 -0.3878 -0.4003 -0.4504
  183EMI    C04 3460   2.357   4.861   4.886  0.3394  0.3552  0.2692
  183EMI    C03 3461   2.347   4.861   4.752 -0.3650 -0.5171  0.3346
  183EMI    H07 3462   2.043   4.858   4.838 -0.1510 -1.7494  2.1584
  183EMI    H09 3463   2.440   4.856   4.952  0.0091 -1.7215  0.6018
  183EMI    H08 3464   2.424   4.856   4.678  0.0412 -0.1597  0.7301
  183EMI    C05 3465   2.154   4.857   4.589 -0.5239 -0.3722 -0.5007
  183EMI    H0B 3466   2.156   4.959   4.554  0.0172  0.6840  2.3794
  183EMI    H0C 3467   2.220   4.803   4.523  0.5701  1.2173 -0.7506
  183EMI    H0D 3468   2.052   4.820   4.588 -1.2256  1.3581  1.1795
  183EMI    N00 3469   2.215   4.866   4.719  0.4267 -0.1856 -0.0653
  183EMI    C06 3470   2.186   4.839   5.073 -0.3490  0.3059 -0.5053
  183EMI    H0F 3471   2.092   4.787   5.079 -1.1962  1.5604 -2.1340
  183EMI    C0N 3472   2.299   4.771   5.159  0.2416 -0.2417  0.5594
  183EMI    H0O 3473   2.386   4.835   5.171 -0.0521 -0.0616  1.8569
  183EMI    H0P 3474   2.261   4.758   5.260  0.6899  2.5410  1.1752
  183EMI    H0Q 3475   2.335   4.682   5.110 -3.7869 -1.8219  0.1207
  183EMI    N02 3476   2.225   4.861   4.934 -0.7542 -0.2832 -0.0520
  183EMI    H0E 3477   2.178   4.937   5.116 -2.3545 -0.5234  1.1693
  184EMI    C01 3478   0.134   0.172   2.510  0.6481  0.1581 -0.1845
  184EMI    C04 3479   0.320   0.113   2.603 -0.1363 -0.7151 -0.5949
  184EMI    C03 3480   0.330   0.087   2.473 -0.2766  0.5554  0.1508
  184EMI    H07 3481   0.035   0.211   2.507  1.4402  2.2404 -1.5694
  184EMI    H09 3482   0.391   0.099   2.681 -1.9845 -0.6999  1.1744
  184EMI    H08 3483   0.407   0.032   2.423 -1.1924 -0.9807  0.3630
  184EMI    C05 3484   0.155   0.076   2.286 -0.5178  0.5206  0.1188
  184EMI    H0B 3485   0.115  -0.024   2.295 -2.1485  1.2576  1.7888
  184EMI    H0C 3486   0.076   0.148   2.267 -0.4815  1.2219  2.3014
  184EMI    H0D 3487   0.237   0.094   2.218  1.1864  0.2838  2.0050
  184EMI    N00 3488   0.210   0.125   2.413  0.2904  0.1307  0.0557
  184EMI    C06 3489   0.158   0.230   2.753 -0.5502 -0.7904 -0.1203
  184EMI    H0F 3490   0.218   0.186   2.831  1.5291 -0.2460 -1.3366
  184EMI    C0N 3491   0.185   0.381   2.747  0.3742  0.9501  0.2181
  184EMI    H0O 3492   0.292   0.383   2.759  0.6406 -0.8330 -1.3941
  184EMI    H0P 3493   0.153   0.432   2.657  0.1759 -0.1237 -0.3338
  184EMI    H0Q 3494   0.145   0.438   2.831 -1.6851 -2.0160  1.4173
  184EMI    N02 3495   0.202   0.178   2.624  0.6347 -0.2633  0.5092
  184EMI    H0E 3496   0.055   0.200   2.767 -0.9003 -0.9451 -2.5570
  185EMI    C01 3497   1.945   1.421   0.607 -0.4778 -0.1511 -0.0318
  185EMI    C04 3498   1.785   1.325   0.711  0.1602 -0.4226 -0.4264
  185EMI    C03 3499   1.740   1.343   0.585  0.1408 -0.4403 -0.1502
  185EMI    H07 3500   2.047   1.450   0.591 -0.1552 -1.5763 -0.7105
  185EMI    H09 3501   1.733   1.287   0.797 -0.5808 -2.7891 -1.8411
  185EMI    H08 3502   1.647   1.319   0.539  0.0542  1.2622 -0.9496
  185EMI    C05 3503   1.869   1.415   0.377 -0.0133 -0.0228 -0.5223
  185EMI    H0B 3504   1.936   1.492   0.340 -0.5302  0.8367  0.2741
  185EMI    H0C 3505   1.896   1.319   0.335 -0.5091  0.2380 -1.4784
  185EMI    H0D 3506   1.775   1.435   0.326 -0.7792  0.7306  1.0933
  185EMI    N00 3507   1.850   1.407   0.523  0.1049  0.7113 -0.2636
  185EMI    C06 3508   2.000   1.371   0.847  0.0895  0.9421  0.1037
  185EMI    H0F 3509   1.935   1.423   0.916 -1.9238 -0.0785 -0.9436
  185EMI    C0N 3510   2.008   1.230   0.902  0.3384  0.3498  0.4349
  185EMI    H0O 3511   1.986   1.226   1.008 -0.3686 -1.9561  0.2497
  185EMI    H0P 3512   1.930   1.166   0.865 -1.5366  1.7474  1.8123
  185EMI    H0Q 3513   2.107   1.188   0.889  0.4948  0.8074  0.1011
  185EMI    N02 3514   1.914   1.376   0.722  0.3156  0.1745  0.0741
  185EMI    H0E 3515   2.095   1.421   0.851 -0.6632  2.5142 -0.9442
  186EMI    C01 3516   3.482   4.455   4.896  0.1924  0.6272  0.1435
  186EMI    C04 3517   3.513   4.421   4.679  0.6469  0.5029 -0.3516
  186EMI    C03 3518   3.595   4.337   4.750 -0.6735 -0.3841  0.1398
  186EMI    H07 3519   3.433   4.485   4.986  0.3827  2.2473 -0.2515
  186EMI    H09 3520   3.498   4.427   4.573  1.2790 -0.8716 -0.5411
  186EMI    H08 3521   3.660   4.273   4.694 -3.2031 -1.5632 -1.6704
  186EMI    C05 3522   3.654   4.316   5.003  0.5089  0.3137  0.1996
  186EMI    H0B 3523   3.755   4.289   4.978 -0.2735 -1.7937 -0.9995
  186EMI    H0C 3524   3.659   4.390   5.081 -0.9916 -0.8472  1.4628
  186EMI    H0D 3525   3.606   4.223   5.028 -1.0289  1.2908  1.0388
  186EMI    N00 3526   3.579   4.367   4.885 -0.0140 -0.2958 -0.2301
  186EMI    C06 3527   3.315   4.560   4.739  0.0237 -1.3231 -0.5190
  186EMI    H0F 3528   3.266   4.511   4.656 -0.7650  0.3270 -1.0671
  186EMI    C0N 3529   3.212   4.565   4.855  0.2167 -0.0781  0.2413
  186EMI    H0O 3530   3.114   4.587   4.813  0.7916 -1.5790 -2.0347
  186EMI    H0P 3531   3.211   4.477   4.917  1.1374  0.8702  1.6562
  186EMI    H0Q 3532   3.247   4.640   4.925 -0.3728  1.1514 -0.7253
  186EMI    N02 3533   3.433   4.481   4.774 -0.5753  0.2722  0.8512
  186EMI    H0E 3534   3.352   4.659   4.713 -0.2931 -0.5821  1.6876
  187EMI    C01 3535   2.750   3.280   0.869  0.9333  0.8087  0.1639
  187EMI    C04 3536   2.765   3.407   0.695 -0.8597  0.5214  0.6015
  187EMI    C03 3537   2.885   3.342   0.715  0.6430 -0.1535  0.4881
  187EMI    H07 3538   2.709   3.222   0.949  0.2983  0.7316 -0.2078
  187EMI    H09 3539   2.736   3.487   0.631  0.7979  1.3812  0.8598
  187EMI    H08 3540   2.983   3.353   0.674  1.1438 -1.6129  1.2082
  187EMI    C05 3541   2.971   3.170   0.882 -0.1968 -0.0477  0.3319
  187EMI    H0B 3542   3.046   3.225   0.938 -1.3449  2.6577 -0.6221
  187EMI    H0C 3543   2.916   3.107   0.949  1.3452 -0.0192  1.6891
  187EMI    H0D 3544   3.013   3.106   0.805  0.2230 -1.3267  1.5859
  187EMI    N00 3545   2.871   3.260   0.823  0.0845  0.5600  0.1414
  187EMI    C06 3546   2.538   3.402   0.809  0.7886  0.2887  0.2257
  187EMI    H0F 3547   2.495   3.332   0.879 -0.0550 -0.6842 -1.1973
  187EMI    C0N 3548   2.533   3.542   0.855 -0.1362  0.3806 -0.5964
  187EMI    H0O 3549   2.548   3.543   0.963  0.8733  0.5989 -0.7290
  187EMI    H0P 3550   2.601   3.607   0.801 -1.4465  1.1715 -1.3415
  187EMI    H0Q 3551   2.434   3.578   0.833 -0.9331 -0.2440  1.6395
  187EMI    N02 3552   2.680   3.359   0.794  0.3871  0.8805 -0.4738
  187EMI    H0E 3553   2.495   3.384   0.711  1.3474 -0.5084  0.1146
  188EMI    C01 3554   1.760   4.171   0.254 -0.2373 -0.2160 -0.0272
  188EMI    C04 3555   1.669   4.106   0.072  0.4222 -0.0934 -0.0275
  188EMI    C03 3556   1.701   3.994   0.136 -0.0862 -0.2530  0.0062
  188EMI    H07 3557   1.794   4.233   0.334  0.4291 -0.5085 -0.0764
  188EMI    H09 3558   1.624   4.118  -0.024 -0.7700 -0.2472  0.4999
  188EMI    H08 3559   1.693   3.894   0.099 -0.1450  0.1869 -1.2323
  188EMI    C05 3560   1.805   3.954   0.360  0.7811 -0.0373  0.1908
  188EMI    H0B 3561   1.720   3.925   0.419  2.8014 -0.9227  2.8667
  188EMI    H0C 3562   1.846   3.861   0.324  1.0256 -0.0470  0.4836
  188EMI    H0D 3563   1.869   4.020   0.419  1.4017  0.5777 -1.1165
  188EMI    N00 3564   1.762   4.038   0.250 -0.3840  0.3331  0.0426
  188EMI    C06 3565   1.697   4.357   0.106 -0.4954 -0.0333 -0.1916
  188EMI    H0F 3566   1.792   4.390   0.067  1.0370 -2.5746  1.1690
  188EMI    C0N 3567   1.592   4.399   0.003  0.3663 -0.0850  0.0927
  188EMI    H0O 3568   1.504   4.431   0.057 -0.3735  0.9914 -1.6394
  188EMI    H0P 3569   1.642   4.473  -0.060  0.7006 -0.9023 -0.6225
  188EMI    H0Q 3570   1.567   4.320  -0.067 -2.3637  1.5204 -0.9311
  188EMI    N02 3571   1.709   4.215   0.147 -0.2687  0.0206  0.3878
  188EMI    H0E 3572   1.688   4.402   0.205  0.4366 -1.4320  0.5563
  189EMI    C01 3573   1.083   0.473   2.702 -0.0315 -0.0896  0.8730
  189EMI    C04 3574   1.102   0.363   2.514  0.3581  0.0082 -0.2769
  189EMI    C03 3575   1.215   0.426   2.535 -0.4550 -0.2931  0.2577
  189EMI    H07 3576   1.057   0.517   2.796  1.6208  1.1865  0.7832
  189EMI    H09 3577   1.059   0.314   2.429  0.6043 -1.4611  0.4033
  189EMI    H08 3578   1.300   0.449   2.475 -0.7427  0.9753  0.3109
  189EMI    C05 3579   1.311   0.570   2.723  0.0016  0.0241  0.1045
  189EMI    H0B 3580   1.404   0.515   2.731 -0.7526 -1.1173  1.5012
  189EMI    H0C 3581   1.333   0.654   2.659 -2.4799  0.1981 -0.6466
  189EMI    H0D 3582   1.286   0.619   2.816 -0.1903  0.6866 -0.2911
  189EMI    N00 3583   1.203   0.489   2.658 -0.2040  0.1770 -0.2085
  189EMI    C06 3584   0.885   0.356   2.640  0.1458  0.5883 -0.0077
  189EMI    H0F 3585   0.856   0.351   2.744 -0.4034  2.3700 -0.0439
  189EMI    C0N 3586   0.802   0.458   2.566  0.9722 -0.2298  0.2421
  189EMI    H0O 3587   0.837   0.555   2.599 -1.9795  1.4515 -1.0992
  189EMI    H0P 3588   0.815   0.461   2.458  1.2164  0.7845  0.2881
  189EMI    H0Q 3589   0.700   0.437   2.595  0.5502  1.2481 -0.1029
  189EMI    N02 3590   1.025   0.386   2.627  0.0103  0.4169  0.3851
  189EMI    H0E 3591   0.879   0.255   2.603  4.2203 -0.3889  1.4816
  190EMI    C01 3592   3.983   1.061   1.471 -0.2029  0.2634 -0.4888
  190EMI    C04 3593   3.982   1.218   1.329  0.1174  0.1386  0.7777
  190EMI    C03 3594   4.087   1.239   1.410 -0.2462  0.0646  0.5086
  190EMI    H07 3595   3.962   0.972   1.526  0.4866  0.3738 -0.0267
  190EMI    H09 3596   3.950   1.270   1.242 -0.7821  0.0674  1.0592
  190EMI    H08 3597   4.163   1.313   1.398  1.6610 -1.8487  0.2084
  190EMI    C05 3598   4.181   1.114   1.614 -0.0199  0.1348  0.6342
  190EMI    H0B 3599   4.148   1.055   1.698  0.7854 -0.7469  0.3651
  190EMI    H0C 3600   4.268   1.058   1.581  2.0187  1.7114  2.9906
  190EMI    H0D 3601   4.217   1.208   1.652  0.6248 -0.4123  1.4161
  190EMI    N00 3602   4.087   1.135   1.499 -0.1070 -0.1075 -0.1423
  190EMI    C06 3603   3.796   1.036   1.309  0.1786 -0.0616 -0.3322
  190EMI    H0F 3604   3.704   1.090   1.323 -0.4960 -0.8219 -1.5960
  190EMI    C0N 3605   3.818   0.989   1.164  0.5368 -0.0646 -0.2109
  190EMI    H0O 3606   3.924   0.967   1.155  0.7900  1.0973 -0.1968
  190EMI    H0P 3607   3.756   0.905   1.135  1.3225 -1.8075  2.6840
  190EMI    H0Q 3608   3.794   1.065   1.091 -1.2046 -1.3618 -1.0465
  190EMI    N02 3609   3.913   1.105   1.372  0.1963 -0.3971  0.0384
  190EMI    H0E 3610   3.793   0.945   1.368 -1.8348 -0.0055 -0.2641
  191EMI    C01 3611   1.443   4.441   4.337  0.7743  0.6743  0.6536
  191EMI    C04 3612   1.307   4.515   4.190 -0.1298 -0.1287 -0.0316
  191EMI    C03 3613   1.418   4.588   4.186 -0.8531 -0.0696 -0.6746
  191EMI    H07 3614   1.491   4.383   4.413  1.4131 -1.0755 -0.9750
  191EMI    H09 3615   1.219   4.522   4.128 -0.5410  0.4325  0.5994
  191EMI    H08 3616   1.439   4.666   4.116  0.7982 -0.2269 -0.3756
  191EMI    C05 3617   1.632   4.593   4.328  0.6751  0.9866 -0.7731
  191EMI    H0B 3618   1.653   4.698   4.314  1.3262  0.6874 -2.1604
  191EMI    H0C 3619   1.628   4.578   4.435  0.7794  1.1330 -0.7485
  191EMI    H0D 3620   1.714   4.530   4.296  1.3722  0.4534  1.8132
  191EMI    N00 3621   1.502   4.545   4.283  0.0011  0.2305 -0.3692
  191EMI    C06 3622   1.218   4.320   4.315  0.7746  0.4174 -1.1434
  191EMI    H0F 3623   1.250   4.258   4.397  0.3534 -1.6314 -2.4580
  191EMI    C0N 3624   1.086   4.396   4.334  0.5240 -0.1604 -0.7236
  191EMI    H0O 3625   1.012   4.318   4.351 -0.8867  1.2358 -0.1786
  191EMI    H0P 3626   1.076   4.462   4.420 -1.6334 -0.1836 -0.9019
  191EMI    H0Q 3627   1.058   4.459   4.250 -1.9033  1.3870  1.0835
  191EMI    N02 3628   1.321   4.417   4.283  0.2127 -0.1860  0.1164
  191EMI    H0E 3629   1.201   4.249   4.235 -3.7224 -0.5380  0.3853
  192EMI    C01 3630   3.726   0.138   4.486 -0.3288  0.4747  0.1122
  192EMI    C04 3631   3.517   0.094   4.530 -0.0632  0.1682 -0.6340
  192EMI    C03 3632   3.594  -0.016   4.560  0.6296  0.2604 -0.1219
  192EMI    H07 3633   3.816   0.188   4.457  0.1624 -0.8345 -0.6905
  192EMI    H09 3634   3.412   0.114   4.529  0.1192  1.1893 -1.8455
  192EMI    H08 3635   3.559  -0.111   4.591 -0.9942  0.8479 -0.0448
  192EMI    C05 3636   3.849  -0.068   4.556 -0.5246  0.4249 -0.3383
  192EMI    H0B 3637   3.824  -0.172   4.548 -0.0624  0.1648  1.2117
  192EMI    H0C 3638   3.909  -0.040   4.471 -0.2951 -0.5400 -0.5031
  192EMI    H0D 3639   3.895  -0.054   4.653 -0.4777 -0.1728 -0.2734
  192EMI    N00 3640   3.726   0.018   4.542  0.8895  1.0388  0.0387
  192EMI    C06 3641   3.572   0.314   4.420  0.7465  0.0914  0.2691
  192EMI    H0F 3642   3.663   0.349   4.372  0.4454 -2.1374 -2.1234
  192EMI    C0N 3643   3.450   0.308   4.331  0.7586 -0.5002  0.3185
  192EMI    H0O 3644   3.472   0.241   4.248  0.8792  1.0621 -0.9645
  192EMI    H0P 3645   3.366   0.265   4.383  0.8601  0.3792  1.2310
  192EMI    H0Q 3646   3.433   0.402   4.279  0.6429 -0.1534  0.9792
  192EMI    N02 3647   3.604   0.184   4.483  0.4692  0.2443  0.1045
  192EMI    H0E 3648   3.536   0.383   4.495 -2.6101  0.3239 -1.3858
  193EMI    C01 3649   3.331   4.438   0.244  0.3672 -0.2887  0.3917
  193EMI    C04 3650   3.241   4.297   0.113 -0.9771 -0.0469  0.8316
  193EMI    C03 3651   3.363   4.248   0.135  0.1921  0.0735 -0.3401
  193EMI    H07 3652   3.347   4.520   0.311  1.2843 -1.3719  1.5480
  193EMI    H09 3653   3.160   4.249   0.063 -0.0526 -1.3813  0.5705
  193EMI    H08 3654   3.414   4.158   0.108 -0.1895 -0.0154 -0.7551
  193EMI    C05 3655   3.552   4.341   0.282 -0.6582 -0.2017  0.1414
  193EMI    H0B 3656   3.608   4.253   0.250  0.0231  0.1831  0.2567
  193EMI    H0C 3657   3.611   4.431   0.287 -0.1615 -0.5056 -0.1113
  193EMI    H0D 3658   3.524   4.332   0.385 -0.4850  4.4429  0.7991
  193EMI    N00 3659   3.423   4.351   0.212  0.4494  0.5018  0.2058
  193EMI    C06 3660   3.090   4.484   0.192 -0.3456  0.5049  0.1582
  193EMI    H0F 3661   3.049   4.541   0.110  1.5003  0.9688 -0.4846
  193EMI    C0N 3662   2.991   4.396   0.255  0.4357  0.1432 -0.2435
  193EMI    H0O 3663   3.017   4.398   0.360  0.7080  2.6274 -0.2841
  193EMI    H0P 3664   2.889   4.431   0.239 -0.6525 -1.7154  1.9860
  193EMI    H0Q 3665   2.998   4.294   0.219  0.9254  0.0958 -0.0152
  193EMI    N02 3666   3.219   4.413   0.178 -0.5183  0.1013  0.5054
  193EMI    H0E 3667   3.118   4.556   0.267  1.9355  0.3226 -0.4484
  194EMI    C01 3668   4.628   2.443   3.641  0.5118 -0.0409  0.1187
  194EMI    C04 3669   4.479   2.539   3.765  0.2712  0.2876 -0.1851
  194EMI    C03 3670   4.573   2.627   3.746 -0.6854  0.8736 -0.1259
  194EMI    H07 3671   4.684   2.374   3.581 -0.7342 -0.5337 -0.5122
  194EMI    H09 3672   4.387   2.562   3.815  0.7833  3.2885 -0.4405
  194EMI    H08 3673   4.586   2.726   3.786  1.1045 -0.3522  2.7050
  194EMI    C05 3674   4.780   2.632   3.593  0.0242 -0.4250 -0.3151
  194EMI    H0B 3675   4.765   2.615   3.487 -0.5167 -2.2116  0.0071
  194EMI    H0C 3676   4.790   2.736   3.620 -0.7633 -0.5045  0.3096
  194EMI    H0D 3677   4.874   2.583   3.616  0.7998  0.9568 -0.4094
  194EMI    N00 3678   4.670   2.569   3.663  0.0975  0.8734  0.7244
  194EMI    C06 3679   4.435   2.303   3.723  0.2948 -0.3569  0.4495
  194EMI    H0F 3680   4.411   2.299   3.828 -0.0745  0.7468  0.4264
  194EMI    C0N 3681   4.310   2.315   3.637  0.1798 -0.0623  0.1532
  194EMI    H0O 3682   4.230   2.267   3.693  2.3881 -2.1553  1.7418
  194EMI    H0P 3683   4.297   2.421   3.621  1.8790  0.0842 -0.4699
  194EMI    H0Q 3684   4.314   2.271   3.538 -2.3153  1.7661 -0.8676
  194EMI    N02 3685   4.519   2.421   3.710  0.0804 -0.1974 -0.3462
  194EMI    H0E 3686   4.491   2.213   3.708 -0.7697 -1.3145  1.9236
  195EMI    C01 3687   1.502   3.603   1.720 -0.1478 -0.2070  1.5233
  195EMI    C04 3688   1.600   3.684   1.894 -0.6100 -0.1659  0.4725
  195EMI    C03 3689   1.474   3.660   1.921 -0.1901  0.3246 -0.5212
  195EMI    H07 3690   1.479   3.560   1.625 -2.1938  1.8396  0.9900
  195EMI    H09 3691   1.681   3.710   1.959  1.2686 -0.1412 -1.7133
  195EMI    H08 3692   1.428   3.692   2.012 -0.0686  0.0037 -0.3429
  195EMI    C05 3693   1.269   3.579   1.801  0.0620 -0.8505  0.2043
  195EMI    H0B 3694   1.197   3.625   1.867 -1.4973 -0.8160 -1.4293
  195EMI    H0C 3695   1.249   3.610   1.699  0.6907  0.3134  0.4120
  195EMI    H0D 3696   1.248   3.473   1.802 -0.4921 -0.7624  2.4909
  195EMI    N00 3697   1.412   3.605   1.813  1.1201  0.2355 -0.8787
  195EMI    C06 3698   1.747   3.668   1.682 -0.5477  0.4728  0.2989
  195EMI    H0F 3699   1.785   3.768   1.699  0.0453  0.3487 -0.2628
  195EMI    C0N 3700   1.848   3.567   1.733 -0.1888  0.0302 -0.0574
  195EMI    H0O 3701   1.813   3.464   1.724  0.3288 -0.2672  1.1795
  195EMI    H0P 3702   1.939   3.561   1.674 -1.4576  0.6403 -2.2066
  195EMI    H0Q 3703   1.868   3.581   1.838  1.3595 -2.5288  0.0834
  195EMI    N02 3704   1.618   3.651   1.760  0.0655  0.0188 -0.0560
  195EMI    H0E 3705   1.727   3.654   1.577  0.8992 -0.4099  0.0993
  196EMI    C01 3706   4.934   1.984   4.768  0.5194 -0.4865  0.6823
  196EMI    C04 3707   5.006   2.026   4.968 -0.1421 -0.1309 -0.0626
  196EMI    C03 3708   4.926   1.922   4.977  0.5765 -0.1639  0.2713
  196EMI    H07 3709   4.922   1.986   4.662 -0.1897 -1.1278  0.7420
  196EMI    H09 3710   5.079   2.068   5.032 -1.1093  1.8735 -0.1921
  196EMI    H08 3711   4.903   1.863   5.063 -0.8845 -0.7767 -0.5147
  196EMI    C05 3712   4.762   1.822   4.820 -0.0798 -0.1343 -0.6674
  196EMI    H0B 3713   4.672   1.878   4.843  0.7623  1.2615 -0.6215
  196EMI    H0C 3714   4.769   1.789   4.717  1.5732  0.7638 -0.8767
  196EMI    H0D 3715   4.760   1.737   4.886 -0.3915  0.8965  0.7020
  196EMI    N00 3716   4.875   1.906   4.852 -0.3619 -0.0322  0.1588
  196EMI    C06 3717   5.115   2.153   4.786 -0.2953 -0.5360 -0.5423
  196EMI    H0F 3718   5.083   2.198   4.693  0.8123  2.2031  0.3163
  196EMI    C0N 3719   5.158   2.267   4.881  0.8036 -0.3877 -0.5512
  196EMI    H0O 3720   5.220   2.338   4.827 -1.4197  1.0067 -1.3932
  196EMI    H0P 3721   5.070   2.324   4.906  2.5831  2.4563 -0.2775
  196EMI    H0Q 3722   5.219   2.234   4.964  1.2648 -1.2261 -1.1995
  196EMI    N02 3723   5.018   2.060   4.836  0.3704  0.2471  0.0386
  196EMI    H0E 3724   5.199   2.088   4.763  0.1172  0.1725 -1.0773
  197EMI    C01 3725   4.801   2.853   0.720  0.1844 -0.2007  0.3200
  197EMI    C04 3726   4.852   2.655   0.796 -0.2236  0.5005  0.2229
  197EMI    C03 3727   4.885   2.742   0.888  0.1948 -0.0811  0.2127
  197EMI    H07 3728   4.772   2.933   0.656  1.3989  1.7632  2.1279
  197EMI    H09 3729   4.857   2.549   0.783  3.2351  0.6930 -1.1028
  197EMI    H08 3730   4.948   2.718   0.971  0.7097  2.7433  0.7536
  197EMI    C05 3731   4.852   2.994   0.909  0.2227 -0.3117  0.1939
  197EMI    H0B 3732   4.950   3.004   0.955  1.1148 -1.1199 -1.4256
  197EMI    H0C 3733   4.822   3.076   0.846 -0.6804  0.1695  1.2215
  197EMI    H0D 3734   4.777   2.985   0.986  0.9359  0.3080  0.9745
  197EMI    N00 3735   4.849   2.867   0.838  0.1998  0.0248  0.0300
  197EMI    C06 3736   4.729   2.670   0.576  0.3287  1.3332 -0.8042
  197EMI    H0F 3737   4.807   2.651   0.503  0.4588  1.3678 -0.6749
  197EMI    C0N 3738   4.650   2.537   0.589 -0.6424 -0.3399 -0.4162
  197EMI    H0O 3739   4.601   2.514   0.495  1.4768  0.2918 -1.7255
  197EMI    H0P 3740   4.712   2.454   0.624 -0.6832  0.6529  2.3017
  197EMI    H0Q 3741   4.567   2.534   0.659  1.6454 -0.9010  2.5104
  197EMI    N02 3742   4.791   2.728   0.690 -0.2891 -0.2343 -0.2941
  197EMI    H0E 3743   4.657   2.739   0.534 -0.3974  0.5394 -0.8960
  198EMI    C01 3744   3.750   0.674   0.674 -0.4940  0.1967  0.0793
  198EMI    C04 3745   3.843   0.482   0.711  0.2680 -0.8053  0.1842
  198EMI    C03 3746   3.815   0.533   0.829 -0.1950  1.4540 -0.0712
  198EMI    H07 3747   3.699   0.756   0.627 -3.6815 -0.9542  1.2650
  198EMI    H09 3748   3.892   0.389   0.690  1.3189 -0.3122  0.4086
  198EMI    H08 3749   3.831   0.483   0.921 -1.1518 -1.2047 -1.2457
  198EMI    C05 3750   3.700   0.739   0.910  0.0757  0.0295  0.0225
  198EMI    H0B 3751   3.702   0.686   1.004 -0.9277 -0.0434  0.0183
  198EMI    H0C 3752   3.750   0.833   0.927  0.4514 -0.4301  1.6468
  198EMI    H0D 3753   3.601   0.771   0.880 -1.2423 -2.9283  0.8392
  198EMI    N00 3754   3.761   0.658   0.808  0.0280  0.4745  0.1172
  198EMI    C06 3755   3.816   0.542   0.460  0.0600  0.8239  0.4468
  198EMI    H0F 3756   3.734   0.472   0.456  0.8428 -0.0662 -0.6517
  198EMI    C0N 3757   3.805   0.654   0.363  0.6863 -0.1322  0.2798
  198EMI    H0O 3758   3.884   0.728   0.368  0.1744  0.4610 -0.2048
  198EMI    H0P 3759   3.809   0.610   0.264  0.8686  2.5477 -1.0207
  198EMI    H0Q 3760   3.707   0.701   0.372  1.5755  1.4839  2.2762
  198EMI    N02 3761   3.807   0.572   0.605 -0.1918 -0.0320 -0.7076
  198EMI    H0E 3762   3.905   0.486   0.433  0.1277  1.3860 -0.5239
  199EMI    C01 3763   4.196   0.296   2.194  0.0344  0.1774  0.4818
  199EMI    C04 3764   4.147   0.511   2.164 -0.5448 -0.1882 -0.1046
  199EMI    C03 3765   4.242   0.507   2.260  0.0373  0.2471 -0.1103
  199EMI    H07 3766   4.202   0.192   2.169  0.3281  0.0706  0.9800
  199EMI    H09 3767   4.095   0.595   2.123  2.7370  2.2713  0.3625
  199EMI    H08 3768   4.288   0.590   2.310  0.8343 -0.9483  1.2379
  199EMI    C05 3769   4.347   0.310   2.389 -0.6339 -0.0152 -0.3224
  199EMI    H0B 3770   4.279   0.306   2.472  1.7901  3.8446  2.1482
  199EMI    H0C 3771   4.371   0.211   2.355  0.8934 -0.1532  1.0307
  199EMI    H0D 3772   4.432   0.375   2.404 -0.6049  0.6162 -2.6760
  199EMI    N00 3773   4.270   0.368   2.275 -0.3620  0.5776  0.3025
  199EMI    C06 3774   4.017   0.333   2.029 -0.5752  0.5280 -0.0024
  199EMI    H0F 3775   3.937   0.405   2.024  0.5629  1.7774 -1.2860
  199EMI    C0N 3776   4.079   0.301   1.897  0.3134 -0.0692 -0.5373
  199EMI    H0O 3777   4.093   0.198   1.866 -1.1634 -0.9067  1.3804
  199EMI    H0P 3778   4.024   0.352   1.818  0.7788  0.5559 -0.4582
  199EMI    H0Q 3779   4.180   0.340   1.891  0.9460 -1.4010  0.8229
  199EMI    N02 3780   4.117   0.382   2.125  0.1338 -0.6108 -0.1346
  199EMI    H0E 3781   3.982   0.236   2.059 -0.1286  0.3366 -0.0991
  200EMI    C01 3782   3.009   4.229   3.225 -0.2017  0.1390 -0.2749
  200EMI    C04 3783   2.827   4.136   3.288  0.4677  0.4463  1.0382
  200EMI    C03 3784   2.921   4.070   3.356  0.4063  0.2145  0.4986
  200EMI    H07 3785   3.070   4.307   3.184 -1.0526  0.5544 -0.7822
  200EMI    H09 3786   2.723   4.118   3.303  0.1612  1.1094 -0.1640
  200EMI    H08 3787   2.914   3.992   3.428  0.6497 -0.1062  0.1814
  200EMI    C05 3788   3.180   4.087   3.336  0.6764 -0.1099  0.6625
  200EMI    H0B 3789   3.171   3.985   3.370  1.7390 -0.3149  0.3433
  200EMI    H0C 3790   3.236   4.113   3.247 -1.5063  1.3277 -0.4032
  200EMI    H0D 3791   3.216   4.154   3.412 -0.6143  2.6158 -0.9537
  200EMI    N00 3792   3.042   4.129   3.310  0.0868 -0.6607 -0.4904
  200EMI    C06 3793   2.801   4.338   3.133  0.5758 -0.5510  0.3717
  200EMI    H0F 3794   2.864   4.422   3.106 -0.6821  0.7956  1.4638
  200EMI    C0N 3795   2.732   4.276   3.011  0.0018  0.1465  0.2539
  200EMI    H0O 3796   2.664   4.340   2.956 -0.2402 -2.1506 -2.3390
  200EMI    H0P 3797   2.805   4.238   2.940 -0.9241 -0.2535 -0.5046
  200EMI    H0Q 3798   2.669   4.191   3.033 -0.2752  0.4943  0.8426
  200EMI    N02 3799   2.880   4.233   3.202  0.0678 -0.1110  0.1778
  200EMI    H0E 3800   2.734   4.370   3.211 -0.7027  0.1811 -0.9815
  201EMI    C01 3801   2.409   2.697   0.500 -0.8156 -0.1336  0.2755
  201EMI    C04 3802   2.455   2.714   0.279 -0.1190 -0.3347 -0.4856
  201EMI    C03 3803   2.329   2.668   0.297  0.0558 -0.0069  0.0959
  201EMI    H07 3804   2.421   2.695   0.606 -1.2492  1.5850  0.3909
  201EMI    H09 3805   2.506   2.721   0.186 -1.1051  3.1401 -0.9271
  201EMI    H08 3806   2.258   2.648   0.219 -2.4071  0.8984  2.0042
  201EMI    C05 3807   2.183   2.606   0.496 -0.4010 -0.0047 -0.5419
  201EMI    H0B 3808   2.152   2.516   0.445  0.4433  0.1593 -1.3802
  201EMI    H0C 3809   2.209   2.588   0.599 -0.9612  2.0987  0.0106
  201EMI    H0D 3810   2.104   2.678   0.510 -0.3533 -0.3630  2.0898
  201EMI    N00 3811   2.300   2.667   0.433  0.1022  0.1866 -0.3145
  201EMI    C06 3812   2.647   2.776   0.437 -0.5022 -0.0388 -0.1555
  201EMI    H0F 3813   2.705   2.694   0.476 -1.2834  0.6775  2.7857
  201EMI    C0N 3814   2.724   2.840   0.326 -0.3538 -0.2976  0.3781
  201EMI    H0O 3815   2.735   2.774   0.241 -0.8366 -0.1573  0.2038
  201EMI    H0P 3816   2.689   2.935   0.287  0.7400 -0.6696 -1.6217
  201EMI    H0Q 3817   2.825   2.862   0.358 -0.2844 -1.0004  0.6541
  201EMI    N02 3818   2.507   2.729   0.412 -0.1019 -0.8191 -0.0955
  201EMI    H0E 3819   2.636   2.852   0.514  1.8490 -0.1010  0.3152
  202EMI    C01 3820   4.096   1.374   4.818 -0.2758  0.0222  0.2849
  202EMI    C04 3821   4.181   1.218   4.944 -0.1002 -0.1455  0.1494
  202EMI    C03 3822   4.279   1.284   4.884 -0.1199 -0.1954  0.5661
  202EMI    H07 3823   4.027   1.435   4.763 -0.8599  0.1290  1.1073
  202EMI    H09 3824   4.185   1.143   5.021 -0.0029 -1.3333 -0.9641
  202EMI    H08 3825   4.385   1.268   4.880 -0.2225 -0.8359  0.3166
  202EMI    C05 3826   4.294   1.454   4.696  0.4027 -0.3415 -0.0254
  202EMI    H0B 3827   4.353   1.388   4.634 -0.7504  0.0004 -1.5593
  202EMI    H0C 3828   4.219   1.514   4.646  0.1036  1.5664  2.5346
  202EMI    H0D 3829   4.362   1.522   4.745 -3.0862  3.0238  0.5576
  202EMI    N00 3830   4.224   1.368   4.795  0.3252 -0.7305 -0.8147
  202EMI    C06 3831   3.921   1.260   4.947  0.6120  0.4548  0.0754
  202EMI    H0F 3832   3.896   1.279   5.050  0.1102  0.4942 -0.0556
  202EMI    C0N 3833   3.821   1.346   4.870  0.2799  0.5379 -0.2375
  202EMI    H0O 3834   3.823   1.452   4.892  0.6002  0.4417  0.2231
  202EMI    H0P 3835   3.835   1.335   4.763 -0.6438  1.7452 -0.5036
  202EMI    H0Q 3836   3.720   1.313   4.892 -0.4369  2.1297 -1.0107
  202EMI    N02 3837   4.062   1.288   4.910 -0.0269 -0.2383 -0.5931
  202EMI    H0E 3838   3.901   1.156   4.924 -0.3789  0.4535  0.8717
  203EMI    C01 3839   1.618   0.041   4.544  0.2923 -0.1466 -0.0505
  203EMI    C04 3840   1.485  -0.129   4.480 -0.3171 -0.1105 -0.3465
  203EMI    C03 3841   1.493  -0.044   4.377  0.6301 -0.1851 -0.4185
  203EMI    H07 3842   1.678   0.105   4.605  2.4218  0.5346 -2.6609
  203EMI    H09 3843   1.434  -0.222   4.489  1.3796 -1.0490  0.1793
  203EMI    H08 3844   1.448  -0.053   4.281 -1.2379 -0.4641  0.4456
  203EMI    C05 3845   1.599   0.186   4.336  1.0710  0.3129  0.1362
  203EMI    H0B 3846   1.624   0.159   4.235 -0.0081  2.9471 -0.9110
  203EMI    H0C 3847   1.510   0.246   4.331  1.6929  1.1632 -1.1644
  203EMI    H0D 3848   1.676   0.246   4.382  0.5229  2.1115 -1.2104
  203EMI    N00 3849   1.569   0.071   4.422 -0.1222  0.2330 -0.3031
  203EMI    C06 3850   1.590  -0.143   4.713  0.7244  0.4481  0.0530
  203EMI    H0F 3851   1.495  -0.170   4.758  1.8719 -0.9258  1.7894
  203EMI    C0N 3852   1.677  -0.268   4.702  0.0810 -0.5430  0.2121
  203EMI    H0O 3853   1.760  -0.270   4.632  0.3368 -2.4547  0.5159
  203EMI    H0P 3854   1.721  -0.298   4.797 -0.9128 -0.9411  0.5562
  203EMI    H0Q 3855   1.618  -0.350   4.662  0.9964  0.6511 -4.1144
  203EMI    N02 3856   1.570  -0.073   4.585  0.1417  0.2035  0.6462
  203EMI    H0E 3857   1.640  -0.074   4.779 -1.3643  0.0580  2.2261
  204EMI    C01 3858   4.693   0.792   3.642  0.1875 -0.4438  0.0934
  204EMI    C04 3859   4.832   0.939   3.709  0.0012 -0.3857  0.4764
  204EMI    C03 3860   4.890   0.883   3.602 -0.1439  0.1566 -0.2102
  204EMI    H07 3861   4.610   0.724   3.640  1.0636 -1.7020  2.3391
  204EMI    H09 3862   4.872   1.017   3.769  0.1668 -0.8163  0.9309
  204EMI    H08 3863   4.983   0.908   3.557  0.0469  1.1192  0.6915
  204EMI    C05 3864   4.802   0.694   3.451 -0.3349 -0.2097 -0.0281
  204EMI    H0B 3865   4.889   0.629   3.454 -0.9172 -1.0127 -0.1821
  204EMI    H0C 3866   4.717   0.627   3.449  0.7251 -1.6006 -0.9812
  204EMI    H0D 3867   4.805   0.746   3.356 -0.5494  1.0666  0.6460
  204EMI    N00 3868   4.796   0.789   3.561 -0.0339 -0.2960 -0.2933
  204EMI    C06 3869   4.618   0.934   3.845 -0.0714 -0.1195  0.6388
  204EMI    H0F 3870   4.690   0.932   3.926  2.0255  0.9867 -1.0765
  204EMI    C0N 3871   4.543   1.069   3.832  0.4615 -0.9395  0.3629
  204EMI    H0O 3872   4.479   1.074   3.919  0.6567 -0.9437  0.5070
  204EMI    H0P 3873   4.592   1.165   3.829 -1.4702  0.1629  1.8744
  204EMI    H0Q 3874   4.487   1.062   3.739 -0.1415 -0.0880  0.6504
  204EMI    N02 3875   4.711   0.883   3.735  0.7124 -0.4905  0.2267
  204EMI    H0E 3876   4.548   0.856   3.871  0.1725 -2.1583 -3.7873
  205EMI    C01 3877   2.946   0.956   0.678 -0.4169 -0.7709  0.1228
  205EMI    C04 3878   3.158   0.901   0.662  0.2678  0.2428 -0.3705
  205EMI    C03 3879   3.090   0.795   0.719 -0.3937 -0.8985 -0.0756
  205EMI    H07 3880   2.859   1.015   0.661  0.3893  0.3995 -0.0438
  205EMI    H09 3881   3.264   0.909   0.653  0.3431 -0.4479 -0.1806
  205EMI    H08 3882   3.130   0.705   0.761 -0.2014 -0.5503  0.5023
  205EMI    C05 3883   2.841   0.745   0.778  0.2297 -0.4759 -0.4818
  205EMI    H0B 3884   2.864   0.718   0.880 -2.3621  2.4148  1.0456
  205EMI    H0C 3885   2.751   0.805   0.771  0.1989 -0.2768  1.2457
  205EMI    H0D 3886   2.843   0.659   0.713 -0.3264 -0.5138 -0.4582
  205EMI    N00 3887   2.955   0.832   0.725  0.0776  0.8478 -0.1434
  205EMI    C06 3888   3.094   1.133   0.584 -0.1118 -0.6204  0.2671
  205EMI    H0F 3889   3.032   1.200   0.642 -1.7551 -2.6121  0.9536
  205EMI    C0N 3890   3.230   1.182   0.613  0.5365  0.0018  0.3648
  205EMI    H0O 3891   3.244   1.164   0.719 -1.5733  1.0445  0.8721
  205EMI    H0P 3892   3.303   1.154   0.537 -0.1334  2.4615 -1.2703
  205EMI    H0Q 3893   3.238   1.290   0.612  2.9305 -0.0984 -1.7140
  205EMI    N02 3894   3.065   1.002   0.640 -0.4067  0.3984  0.6958
  205EMI    H0E 3895   3.064   1.144   0.481 -0.5713  4.5185  0.7053
  206EMI    C01 3896   3.704   4.403   1.424 -0.1798 -0.4905 -0.2488
  206EMI    C04 3897   3.768   4.230   1.310 -0.4090 -0.2924 -0.0889
  206EMI    C03 3898   3.661   4.279   1.256  0.2489  0.4240  0.4747
  206EMI    H07 3899   3.694   4.474   1.504  1.3085 -0.5480  0.0129
  206EMI    H09 3900   3.835   4.159   1.267 -1.5669 -1.9413  0.6935
  206EMI    H08 3901   3.604   4.249   1.171 -0.4548 -2.8981  1.9491
  206EMI    C05 3902   3.487   4.463   1.307 -0.1788  0.5860 -0.3093
  206EMI    H0B 3903   3.438   4.444   1.212 -0.6006  2.9236 -0.6189
  206EMI    H0C 3904   3.425   4.437   1.390  0.4960  0.2105  0.0846
  206EMI    H0D 3905   3.513   4.568   1.313 -1.9388  1.3330 -3.3680
  206EMI    N00 3906   3.614   4.387   1.331  0.4787 -0.3175  0.3079
  206EMI    C06 3907   3.898   4.283   1.528 -0.4544  0.1751 -0.3190
  206EMI    H0F 3908   3.977   4.219   1.491  0.4100  0.9859  0.0643
  206EMI    C0N 3909   3.967   4.413   1.563 -0.4565  0.0678 -0.0040
  206EMI    H0O 3910   3.911   4.502   1.590 -0.1475  0.7191 -1.4015
  206EMI    H0P 3911   4.042   4.384   1.635 -0.6599 -2.6373 -0.7658
  206EMI    H0Q 3912   4.026   4.447   1.479 -1.1685 -0.2329 -0.6397
  206EMI    N02 3913   3.791   4.304   1.422 -0.4475 -0.2183  0.9768
  206EMI    H0E 3914   3.848   4.227   1.605  0.5921 -1.9233 -1.0778
  207EMI    C01 3915   4.723   2.630   4.389 -0.0426 -0.5054  0.4933
  207EMI    C04 3916   4.609   2.672   4.213  0.1444  0.1599  0.0230
  207EMI    C03 3917   4.544   2.726   4.317  0.3457 -0.3612 -0.0055
  207EMI    H07 3918   4.789   2.578   4.455 -0.3071 -0.1611  1.0334
  207EMI    H09 3919   4.578   2.672   4.111  0.9874 -0.1778 -0.2409
  207EMI    H08 3920   4.453   2.779   4.331 -0.6628 -2.2376  0.9203
  207EMI    C05 3921   4.572   2.710   4.569  0.5981  0.1550 -0.1253
  207EMI    H0B 3922   4.650   2.677   4.636  1.0663 -0.7834 -1.1053
  207EMI    H0C 3923   4.535   2.810   4.582  1.2736  0.0634  3.3953
  207EMI    H0D 3924   4.476   2.661   4.579  0.5223  0.6613  2.2978
  207EMI    N00 3925   4.615   2.689   4.429 -0.6210  0.7638 -0.2460
  207EMI    C06 3926   4.825   2.536   4.178  0.5203 -0.6267 -0.5221
  207EMI    H0F 3927   4.860   2.464   4.251  1.0857  0.1006 -0.0572
  207EMI    C0N 3928   4.771   2.456   4.063  0.3030  0.3626 -0.2913
  207EMI    H0O 3929   4.858   2.415   4.013  1.9059  2.3274  0.6861
  207EMI    H0P 3930   4.707   2.373   4.091 -1.8250  1.8014 -0.7060
  207EMI    H0Q 3931   4.707   2.517   4.002 -3.6151  0.3926  3.4065
  207EMI    N02 3932   4.720   2.607   4.260 -0.1029 -0.7419 -0.4581
  207EMI    H0E 3933   4.903   2.608   4.160  2.0345 -1.8653  0.7675
  208EMI    C01 3934   3.494   1.299   3.650 -0.0448  0.5160 -0.1201
  208EMI    C04 3935   3.428   1.293   3.854  0.8974  0.0244 -1.0381
  208EMI    C03 3936   3.323   1.268   3.776 -0.1679 -0.4001  0.0899
  208EMI    H07 3937   3.554   1.302   3.561 -0.4624  0.3790 -0.4096
  208EMI    H09 3938   3.442   1.303   3.959  0.6145  0.4717 -1.0411
  208EMI    H08 3939   3.222   1.249   3.806 -0.0394 -0.1976  0.6646
  208EMI    C05 3940   3.294   1.196   3.538  0.5610 -0.5147 -0.4214
  208EMI    H0B 3941   3.232   1.114   3.572  0.6905  0.0502  1.2789
  208EMI    H0C 3942   3.237   1.280   3.502  1.3415  0.8870  1.4153
  208EMI    H0D 3943   3.366   1.147   3.475  0.1879 -1.6833  0.0259
  208EMI    N00 3944   3.373   1.252   3.649 -0.3234 -0.2749 -0.2202
  208EMI    C06 3945   3.671   1.367   3.800 -0.2042 -1.1546 -0.6308
  208EMI    H0F 3946   3.701   1.436   3.723  1.8364 -1.4612 -0.1795
  208EMI    C0N 3947   3.675   1.433   3.936  0.1688  0.4821  0.4627
  208EMI    H0O 3948   3.663   1.364   4.018 -1.4046  0.2151  0.0436
  208EMI    H0P 3949   3.765   1.493   3.938  1.4499 -1.0843 -3.0140
  208EMI    H0Q 3950   3.606   1.517   3.933  1.0745  1.2421 -1.7601
  208EMI    N02 3951   3.537   1.313   3.772  0.4134 -0.6153 -0.2959
  208EMI    H0E 3952   3.740   1.284   3.795  1.5609  0.1344  0.9309
  209EMI    C01 3953   3.930   1.999   2.576  0.6066 -0.4357 -0.3160
  209EMI    C04 3954   3.958   1.840   2.438  0.2439 -0.0954  0.2965
  209EMI    C03 3955   3.835   1.893   2.413  0.6518 -0.5866  0.5104
  209EMI    H07 3956   3.961   2.068   2.652  0.5656 -1.6869  0.8709
  209EMI    H09 3957   4.014   1.758   2.400  0.1062 -0.4285  0.8116
  209EMI    H08 3958   3.748   1.862   2.359 -0.2420  0.2869  1.4217
  209EMI    C05 3959   3.720   2.099   2.513  1.2147 -0.3757 -0.4749
  209EMI    H0B 3960   3.657   2.095   2.600  2.2884 -1.5660  0.2907
  209EMI    H0C 3961   3.769   2.195   2.519  0.7436 -0.0827 -1.1468
  209EMI    H0D 3962   3.640   2.105   2.440 -1.2125  0.0350  2.0779
  209EMI    N00 3963   3.821   2.001   2.500  0.2383  0.2754  0.5164
  209EMI    C06 3964   4.153   1.891   2.592 -0.5614  0.5957 -0.2033
  209EMI    H0F 3965   4.160   1.932   2.692 -1.1136  0.7825 -0.2367
  209EMI    C0N 3966   4.199   1.750   2.591 -0.2702 -0.1811 -0.5914
  209EMI    H0O 3967   4.223   1.726   2.488 -0.7886  1.3553 -1.0957
  209EMI    H0P 3968   4.290   1.749   2.650  0.7723 -0.3515 -2.1408
  209EMI    H0Q 3969   4.132   1.677   2.635 -1.4535  0.7657 -0.7991
  209EMI    N02 3970   4.016   1.911   2.540  0.2499  0.1545  0.7434
  209EMI    H0E 3971   4.210   1.961   2.533 -0.3126  0.1175 -0.5309
  210EMI    C01 3972   3.311   3.814   0.567 -0.7406 -0.0119 -0.6156
  210EMI    C04 3973   3.284   3.918   0.750  0.6355  0.0313  0.1717
  210EMI    C03 3974   3.356   3.809   0.778  0.0477 -0.4117 -0.0323
  210EMI    H07 3975   3.296   3.795   0.463 -0.7013 -0.8829 -0.4705
  210EMI    H09 3976   3.238   3.986   0.818 -1.8177 -0.5034 -0.8510
  210EMI    H08 3977   3.375   3.766   0.874 -1.4756 -0.5608  0.2291
  210EMI    C05 3978   3.445   3.614   0.637  0.3206 -0.2420 -0.1831
  210EMI    H0B 3979   3.388   3.528   0.672 -0.5294 -0.7644 -2.6700
  210EMI    H0C 3980   3.465   3.600   0.532  1.5739  1.4772 -0.2144
  210EMI    H0D 3981   3.537   3.626   0.692  1.6227  0.8002 -2.4678
  210EMI    N00 3982   3.371   3.739   0.659  0.8095 -0.1706  0.2162
  210EMI    C06 3983   3.194   4.044   0.543 -0.0565 -0.3719  0.1462
  210EMI    H0F 3984   3.179   4.011   0.442 -0.6178  0.3200 -0.0062
  210EMI    C0N 3985   3.056   4.068   0.589  0.1966 -0.3872  0.4809
  210EMI    H0O 3986   3.016   4.154   0.536  0.2838  0.6277  1.9965
  210EMI    H0P 3987   2.995   3.980   0.572 -0.1361 -0.2222  0.7969
  210EMI    H0Q 3988   3.060   4.094   0.694  1.6594  0.0495  0.3360
  210EMI    N02 3989   3.266   3.929   0.613  0.4944 -0.1255 -0.1335
  210EMI    H0E 3990   3.244   4.139   0.528 -1.7019  0.2515 -1.8965
  211EMI    C01 3991   1.915   2.620   3.477 -0.0007  0.3405  0.0517
  211EMI    C04 3992   2.059   2.672   3.323  0.1629 -0.1085 -0.1502
  211EMI    C03 3993   2.050   2.540   3.324  0.8685 -0.1337  0.7933
  211EMI    H07 3994   1.842   2.609   3.554  0.4444 -3.7161  0.1142
  211EMI    H09 3995   2.121   2.740   3.270 -2.0678  2.4335  0.2537
  211EMI    H08 3996   2.100   2.469   3.261  0.7231 -0.5287  1.1245
  211EMI    C05 3997   1.936   2.374   3.474 -0.1838  0.4292  0.0865
  211EMI    H0B 3998   1.880   2.322   3.398  1.1048 -0.0443 -0.5692
  211EMI    H0C 3999   2.021   2.314   3.502  0.4205  0.8594 -0.7869
  211EMI    H0D 4000   1.866   2.372   3.557 -1.7238 -0.8692 -1.1727
  211EMI    N00 4001   1.969   2.509   3.428  0.5026 -0.0168 -0.5784
  211EMI    C06 4002   1.962   2.865   3.447 -0.3105  0.5762 -0.4919
  211EMI    H0F 4003   2.042   2.911   3.505  0.2948 -0.0965 -0.7761
  211EMI    C0N 4004   1.940   2.949   3.321  0.0418 -0.2334 -0.5929
  211EMI    H0O 4005   2.025   2.979   3.261  0.6422  0.4669  0.5717
  211EMI    H0P 4006   1.864   2.909   3.254  0.1047  0.8776 -1.3520
  211EMI    H0Q 4007   1.896   3.041   3.358  0.0159 -0.0337 -1.1055
  211EMI    N02 4008   1.973   2.722   3.419  0.5715  0.0189 -0.1069
  211EMI    H0E 4009   1.871   2.864   3.505 -0.4224 -1.3067 -0.6389
  212EMI    C01 4010   0.860   0.445   5.043 -0.2261  0.2730  0.4785
  212EMI    C04 4011   0.767   0.345   5.208  0.5051 -0.4511 -0.3197
  212EMI    C03 4012   0.899   0.326   5.218 -0.7334  0.1206  0.6409
  212EMI    H07 4013   0.868   0.484   4.943  1.3594 -1.2924 -0.0606
  212EMI    H09 4014   0.686   0.310   5.268  0.1812  0.0123 -0.4767
  212EMI    H08 4015   0.949   0.263   5.288  2.7699  0.7071 -1.1270
  212EMI    C05 4016   1.100   0.390   5.070 -0.2907 -0.2876 -0.0199
  212EMI    H0B 4017   1.171   0.373   5.150 -1.1627 -2.1700  0.4288
  212EMI    H0C 4018   1.120   0.330   4.982 -1.0822  1.8771 -1.7797
  212EMI    H0D 4019   1.109   0.493   5.039  2.6471 -0.2527  0.7102
  212EMI    N00 4020   0.959   0.386   5.108  0.4899 -0.0990  0.2597
  212EMI    C06 4021   0.613   0.468   5.053  0.3255  0.4484 -0.6988
  212EMI    H0F 4022   0.552   0.380   5.042  1.8129 -0.8051  0.5140
  212EMI    C0N 4023   0.561   0.566   5.154  0.2599  0.2142  0.1305
  212EMI    H0O 4024   0.642   0.623   5.199  0.9066 -0.5207 -0.0622
  212EMI    H0P 4025   0.501   0.643   5.108  0.6020  0.6325  0.3772
  212EMI    H0Q 4026   0.499   0.514   5.226  1.1599 -1.0116  0.0501
  212EMI    N02 4027   0.739   0.423   5.100 -0.1568 -0.1739 -0.1533
  212EMI    H0E 4028   0.629   0.514   4.957 -1.3666 -0.4070 -1.4294
  213EMI    C01 4029   0.241   2.355   3.053  0.5392 -0.2104 -0.0717
  213EMI    C04 4030   0.203   2.537   3.174 -0.2798  0.2875 -0.3045
  213EMI    C03 4031   0.104   2.522   3.087  0.0696  0.6534 -0.1678
  213EMI    H07 4032   0.284   2.264   3.018  0.0938 -0.8168  0.9227
  213EMI    H09 4033   0.199   2.585   3.270  0.3833  0.0513 -0.1562
  213EMI    H08 4034   0.004   2.560   3.091 -0.9798 -1.9120  0.3611
  213EMI    C05 4035   0.034   2.345   2.912 -0.2060 -0.5935  0.5600
  213EMI    H0B 4036   0.018   2.410   2.827  1.7158 -1.1228 -0.2552
  213EMI    H0C 4037   0.078   2.262   2.858 -1.1887 -1.1683  0.6259
  213EMI    H0D 4038  -0.056   2.310   2.959 -0.1307 -0.7932  0.5552
  213EMI    N00 4039   0.126   2.408   3.011 -0.2787  0.7492  0.8084
  213EMI    C06 4040   0.404   2.400   3.236  0.2313 -0.3957 -0.3330
  213EMI    H0F 4041   0.487   2.446   3.183 -0.1078 -2.2446 -2.6746
  213EMI    C0N 4042   0.393   2.422   3.388  0.7804 -0.2152  0.4974
  213EMI    H0O 4043   0.318   2.350   3.421  0.2157 -0.4894 -1.2618
  213EMI    H0P 4044   0.484   2.401   3.443  0.1620 -1.3201  1.1561
  213EMI    H0Q 4045   0.365   2.524   3.410 -0.7292 -0.8815  1.8642
  213EMI    N02 4046   0.294   2.438   3.148 -0.1316 -0.1875  0.5450
  213EMI    H0E 4047   0.421   2.294   3.225 -3.7288 -1.6264  3.1007
  214EMI    C01 4048   2.553   1.020   1.247 -0.3704 -0.1959  0.7240
  214EMI    C04 4049   2.700   0.863   1.201  0.5094 -0.2783  0.0001
  214EMI    C03 4050   2.736   0.919   1.317 -0.7760  0.0540  0.6602
  214EMI    H07 4051   2.473   1.088   1.228 -0.6575 -1.1292 -1.7032
  214EMI    H09 4052   2.761   0.794   1.147 -0.2005 -0.0808 -1.0849
  214EMI    H08 4053   2.828   0.895   1.365  1.2994  5.3666 -0.0034
  214EMI    C05 4054   2.649   1.106   1.459 -0.3181  0.1614  0.6301
  214EMI    H0B 4055   2.611   1.047   1.542 -2.8609 -0.4414 -0.8552
  214EMI    H0C 4056   2.743   1.158   1.472  0.3929 -0.3744 -1.8893
  214EMI    H0D 4057   2.578   1.187   1.457  1.5414  1.8501 -0.4506
  214EMI    N00 4058   2.646   1.016   1.343  0.2934  0.1813  0.5951
  214EMI    C06 4059   2.503   0.900   1.040  0.1932  0.4742 -1.0146
  214EMI    H0F 4060   2.558   0.840   0.969 -1.1327  0.1202 -1.7752
  214EMI    C0N 4061   2.385   0.820   1.081  0.2959 -0.0479  0.1218
  214EMI    H0O 4062   2.306   0.881   1.122  2.1491  0.2963  3.5102
  214EMI    H0P 4063   2.334   0.782   0.993  0.1650  2.8280 -1.1589
  214EMI    H0Q 4064   2.403   0.741   1.153 -0.5236  0.2377  0.6412
  214EMI    N02 4065   2.587   0.928   1.163  0.3926 -0.5366  0.2044
  214EMI    H0E 4066   2.483   0.994   0.990 -0.3515  0.1080 -1.4888
  215EMI    C01 4067   1.404   3.582   4.860  0.0367  0.0154  0.6565
  215EMI    C04 4068   1.543   3.416   4.891  0.1069  0.5533 -0.3209
  215EMI    C03 4069   1.508   3.417   4.762 -0.1852  0.6774 -0.5017
  215EMI    H07 4070   1.342   3.666   4.884 -0.3635  0.1187 -0.6167
  215EMI    H09 4071   1.600   3.347   4.949  0.6760  1.2215 -0.0625
  215EMI    H08 4072   1.536   3.345   4.687 -1.9901 -1.5907  0.8866
  215EMI    C05 4073   1.384   3.557   4.606 -0.6180 -0.2320  0.4056
  215EMI    H0B 4074   1.300   3.623   4.622 -0.0637  0.3842  0.8376
  215EMI    H0C 4075   1.469   3.602   4.557 -0.4524 -0.8738  0.0839
  215EMI    H0D 4076   1.358   3.470   4.548  0.4199 -0.2334 -0.0783
  215EMI    N00 4077   1.423   3.522   4.743 -0.1010  0.0497 -0.4304
  215EMI    C06 4078   1.502   3.571   5.092 -0.3594 -0.5623  0.0017
  215EMI    H0F 4079   1.606   3.596   5.079 -0.4965 -0.1449 -0.3015
  215EMI    C0N 4080   1.423   3.689   5.139  0.1890 -0.6154 -0.8993
  215EMI    H0O 4081   1.444   3.734   5.236  3.0331 -1.0811 -1.2344
  215EMI    H0P 4082   1.440   3.767   5.066 -0.6391 -0.8885 -1.3981
  215EMI    H0Q 4083   1.316   3.670   5.134 -0.3985  1.9287  0.0400
  215EMI    N02 4084   1.478   3.524   4.956  0.0125 -0.4293 -0.0726
  215EMI    H0E 4085   1.490   3.487   5.159 -2.3280 -0.3813 -0.0700
  216EMI    C01 4086   1.057   4.330   2.271 -0.3196  0.2694  0.2074
  216EMI    C04 4087   1.007   4.142   2.175  0.2840 -0.0780 -0.1137
  216EMI    C03 4088   1.004   4.119   2.311 -0.5507 -0.0782  0.5562
  216EMI    H07 4089   1.088   4.432   2.283  0.9484  0.4312 -3.3258
  216EMI    H09 4090   1.009   4.069   2.097  0.3315 -1.4477  1.1327
  216EMI    H08 4091   0.978   4.029   2.363 -1.2642 -0.0540  0.2498
  216EMI    C05 4092   0.996   4.297   2.498 -0.7351  0.1942  0.9851
  216EMI    H0B 4093   0.920   4.373   2.507  1.6721  2.8260  0.4838
  216EMI    H0C 4094   0.972   4.219   2.569 -0.3067 -1.3122 -0.4569
  216EMI    H0D 4095   1.088   4.339   2.534 -0.5685  0.9930 -0.3269
  216EMI    N00 4096   1.016   4.249   2.362  0.5059  0.3446  0.3719
  216EMI    C06 4097   1.039   4.333   2.021  0.1791 -0.3664  0.5365
  216EMI    H0F 4098   1.122   4.302   1.960  1.3761  1.1239  1.3291
  216EMI    C0N 4099   0.907   4.298   1.945 -0.3167 -0.1960  0.1269
  216EMI    H0O 4100   0.822   4.358   1.976 -1.1546  1.8180 -5.0807
  216EMI    H0P 4101   0.905   4.339   1.845 -2.2870 -0.4303  0.0226
  216EMI    H0Q 4102   0.880   4.193   1.935 -3.0735  0.3058  1.2097
  216EMI    N02 4103   1.043   4.272   2.153 -0.2946  0.2976  0.6459
  216EMI    H0E 4104   1.053   4.440   2.018 -0.2667 -0.3151  0.2753
  217EMI    C01 4105   2.342   2.578   3.989  0.6906 -0.3015 -0.3230
  217EMI    C04 4106   2.259   2.449   3.834 -0.1553  0.6267 -0.0967
  217EMI    C03 4107   2.156   2.500   3.897  0.7703 -1.2820 -0.6817
  217EMI    H07 4108   2.413   2.638   4.043  0.3268 -0.7596  0.7051
  217EMI    H09 4109   2.265   2.378   3.754  0.3647 -0.8239  1.1696
  217EMI    H08 4110   2.049   2.508   3.892  0.6722  1.6628  2.3693
  217EMI    C05 4111   2.135   2.640   4.112  0.0468 -0.9749 -0.8199
  217EMI    H0B 4112   2.201   2.713   4.156 -1.4233 -0.7074  1.0914
  217EMI    H0C 4113   2.041   2.681   4.079 -0.6429 -1.0217  0.9393
  217EMI    H0D 4114   2.126   2.563   4.188  0.6073 -0.0303  0.2235
  217EMI    N00 4115   2.211   2.571   4.005  0.1479 -0.0014 -0.1906
  217EMI    C06 4116   2.509   2.459   3.850 -0.1177  0.0170  0.6186
  217EMI    H0F 4117   2.528   2.362   3.893  2.6422  0.5263  0.7357
  217EMI    C0N 4118   2.523   2.438   3.692  0.3263 -0.3103  0.0883
  217EMI    H0O 4119   2.619   2.484   3.673 -0.0001  0.1888 -0.3985
  217EMI    H0P 4120   2.527   2.331   3.674  2.2963 -0.3125  0.2961
  217EMI    H0Q 4121   2.447   2.485   3.630  0.3561 -0.7393 -0.2749
  217EMI    N02 4122   2.376   2.492   3.894 -0.0933 -0.1565  0.2197
  217EMI    H0E 4123   2.572   2.538   3.888  0.2755 -1.2272  2.6822
  218EMI    C01 4124   3.963   2.258   4.855 -0.8056  0.3289 -0.3265
  218EMI    C04 4125   3.752   2.200   4.805 -0.3971 -0.1953  0.1191
  218EMI    C03 4126   3.835   2.130   4.730  0.0854 -0.2315  0.2814
  218EMI    H07 4127   4.048   2.304   4.901 -1.1737  0.5921  0.1039
  218EMI    H09 4128   3.646   2.201   4.818 -0.4221 -0.0546 -0.0843
  218EMI    H08 4129   3.809   2.044   4.672  2.3067 -1.3275  0.8021
  218EMI    C05 4130   4.087   2.098   4.713 -0.2046  0.3709  0.1227
  218EMI    H0B 4131   4.179   2.155   4.702  1.0268 -1.4764  0.4268
  218EMI    H0C 4132   4.123   2.018   4.776  0.5522  1.8998  1.7402
  218EMI    H0D 4133   4.057   2.063   4.615 -0.3192  1.1332 -0.1224
  218EMI    N00 4134   3.962   2.159   4.762 -0.0912 -0.5200 -0.5655
  218EMI    C06 4135   3.792   2.372   4.985 -0.2793 -0.5195  0.4592
  218EMI    H0F 4136   3.874   2.365   5.055  1.9358 -0.4664 -1.9956
  218EMI    C0N 4137   3.759   2.513   4.935  0.5447 -0.0044  0.2606
  218EMI    H0O 4138   3.735   2.574   5.021 -0.1958 -1.7989  1.3812
  218EMI    H0P 4139   3.849   2.550   4.887 -1.0762  0.9607 -2.2433
  218EMI    H0Q 4140   3.688   2.510   4.853  1.3823  0.4552 -0.5075
  218EMI    N02 4141   3.837   2.289   4.876  0.1907 -0.5545  0.3830
  218EMI    H0E 4142   3.705   2.314   5.016 -1.0863 -0.0871 -0.9267
  219EMI    C01 4143   3.536   1.384   2.660 -0.2963 -0.4070 -0.0330
  219EMI    C04 4144   3.335   1.467   2.675 -0.3605  0.1859  0.2657
  219EMI    C03 4145   3.359   1.441   2.547 -0.2183 -0.2195  0.0241
  219EMI    H07 4146   3.637   1.354   2.676 -0.1344  0.7736  1.3553
  219EMI    H09 4147   3.249   1.515   2.717 -1.7618 -1.2321 -0.8592
  219EMI    H08 4148   3.294   1.465   2.466  0.0198  1.3754  0.2719
  219EMI    C05 4149   3.530   1.344   2.403 -0.7583  0.3162  0.3597
  219EMI    H0B 4150   3.523   1.238   2.385 -1.1950  0.4926 -0.5689
  219EMI    H0C 4151   3.472   1.390   2.324 -0.9738 -0.9223 -0.2306
  219EMI    H0D 4152   3.636   1.359   2.385 -0.7070 -0.0065  0.3817
  219EMI    N00 4153   3.482   1.388   2.537  0.0859 -0.4502 -0.3112
  219EMI    C06 4154   3.455   1.428   2.891 -0.6025  0.4492 -0.4572
  219EMI    H0F 4155   3.442   1.525   2.937  3.0934  0.4407  0.9151
  219EMI    C0N 4156   3.363   1.330   2.939  0.3679  0.7014  0.1443
  219EMI    H0O 4157   3.346   1.258   2.859 -0.4103  0.5465  0.4411
  219EMI    H0P 4158   3.407   1.273   3.020  0.5172  1.7590  0.8206
  219EMI    H0Q 4159   3.266   1.369   2.968  0.3700  0.4978  0.4331
  219EMI    N02 4160   3.443   1.424   2.746 -0.2258 -0.3264  0.4038
  219EMI    H0E 4161   3.556   1.399   2.918 -1.0714 -0.6152  0.2303
  220EMI    C01 4162   2.825   3.170   1.859  0.4817 -0.6478 -0.4255
  220EMI    C04 4163   2.616   3.215   1.913  0.9196  0.4901  0.0405
  220EMI    C03 4164   2.681   3.189   2.026 -0.3673 -0.8113 -0.5955
  220EMI    H07 4165   2.920   3.183   1.812  1.4330 -2.6739  0.7946
  220EMI    H09 4166   2.513   3.233   1.894  0.2894 -1.3549  1.4468
  220EMI    H08 4167   2.644   3.176   2.125  0.3923 -1.1978 -0.3579
  220EMI    C05 4168   2.914   3.126   2.084 -0.3092  0.3268 -0.9254
  220EMI    H0B 4169   2.893   3.024   2.113  0.2018 -0.0589 -1.8902
  220EMI    H0C 4170   3.014   3.137   2.046  0.7043 -0.6551  1.2345
  220EMI    H0D 4171   2.904   3.188   2.172 -2.0669 -0.6132 -0.4157
  220EMI    N00 4172   2.813   3.167   1.988 -0.5140  0.1825 -0.1984
  220EMI    C06 4173   2.682   3.262   1.673  0.3935 -0.0722 -0.5244
  220EMI    H0F 4174   2.610   3.198   1.625  1.2971 -1.3527 -0.2170
  220EMI    C0N 4175   2.641   3.412   1.665  0.0834  0.8166 -0.4629
  220EMI    H0O 4176   2.568   3.430   1.743 -0.9783 -0.8294 -1.0362
  220EMI    H0P 4177   2.735   3.463   1.683  2.1108 -2.6582 -0.3404
  220EMI    H0Q 4178   2.594   3.431   1.569  0.7167 -1.5580 -1.3174
  220EMI    N02 4179   2.709   3.219   1.813  0.4334 -0.0901 -0.5561
  220EMI    H0E 4180   2.782   3.246   1.635 -0.5588  1.0990 -3.8133
  221EMI    C01 4181   0.133   3.284   1.938  0.7148  0.6074 -0.0730
  221EMI    C04 4182   0.127   3.082   1.847 -0.2867 -0.2499 -0.5568
  221EMI    C03 4183   0.077   3.168   1.755 -0.0761  0.4378  0.6711
  221EMI    H07 4184   0.143   3.368   2.005  2.0061  0.9677 -0.6791
  221EMI    H09 4185   0.157   2.980   1.838  3.2580  0.7258 -1.4308
  221EMI    H08 4186   0.042   3.152   1.656 -1.3517 -0.2330  1.2164
  221EMI    C05 4187   0.006   3.411   1.758 -0.0108 -0.0096 -0.3573
  221EMI    H0B 4188  -0.101   3.422   1.767  0.1880  3.8800 -0.7244
  221EMI    H0C 4189   0.059   3.500   1.789  1.2959 -1.5114  1.9893
  221EMI    H0D 4190   0.029   3.391   1.654  0.5216  0.5231 -0.3492
  221EMI    N00 4191   0.069   3.293   1.821  0.7974  0.5620  0.3083
  221EMI    C06 4192   0.218   3.091   2.083  0.9308  0.5288  0.9375
  221EMI    H0F 4193   0.320   3.067   2.058  0.6721  0.1986  0.1826
  221EMI    C0N 4194   0.204   3.186   2.194  0.6100  0.3364 -0.1009
  221EMI    H0O 4195   0.274   3.162   2.273  0.2080  1.4989  0.6313
  221EMI    H0P 4196   0.224   3.290   2.171  0.0076  0.0929 -1.9091
  221EMI    H0Q 4197   0.108   3.178   2.243  1.1039 -1.5366  0.6380
  221EMI    N02 4198   0.161   3.151   1.960 -0.7083 -1.2829 -0.6619
  221EMI    H0E 4199   0.158   3.005   2.106  1.9971 -0.9067 -1.3378
  222EMI    C01 4200   0.009   1.575   2.497  0.5515 -0.6932  0.4568
  222EMI    C04 4201   0.175   1.440   2.491  0.1981  0.0959  0.0632
  222EMI    C03 4202   0.212   1.533   2.573 -0.3831  0.2176 -0.8140
  222EMI    H07 4203  -0.084   1.625   2.482  0.3617 -1.0785  0.3335
  222EMI    H09 4204   0.225   1.355   2.451  0.9067  0.3290  0.4310
  222EMI    H08 4205   0.294   1.537   2.641  0.2581  2.0638 -1.6269
  222EMI    C05 4206   0.094   1.731   2.667 -0.0845 -0.2982  0.6019
  222EMI    H0B 4207   0.017   1.798   2.632 -0.6192 -1.3786 -0.3864
  222EMI    H0C 4208   0.065   1.710   2.769  0.2688 -0.1600  0.7322
  222EMI    H0D 4209   0.190   1.780   2.678 -0.3814  1.0641 -1.9638
  222EMI    N00 4210   0.108   1.623   2.572  0.5359  0.5956  0.3476
  222EMI    C06 4211  -0.010   1.400   2.323 -0.4713 -0.4767  0.5839
  222EMI    H0F 4212   0.055   1.316   2.301  2.4851  1.9636 -0.7534
  222EMI    C0N 4213  -0.154   1.366   2.347  0.2559 -0.0640  0.6966
  222EMI    H0O 4214  -0.222   1.446   2.376 -0.6868 -0.3473 -0.6551
  222EMI    H0P 4215  -0.202   1.324   2.259  1.2988 -0.1009  0.1303
  222EMI    H0Q 4216  -0.156   1.284   2.418  1.5923 -0.8663 -0.1385
  222EMI    N02 4217   0.055   1.472   2.433 -0.4348 -0.0038  0.1265
  222EMI    H0E 4218  -0.001   1.464   2.236 -4.9681  1.1910  1.1167
  223EMI    C01 4219   4.751   3.643   1.708 -0.1936  0.6366 -0.0654
  223EMI    C04 4220   4.684   3.608   1.907  0.0391 -0.2189 -0.0989
  223EMI    C03 4221   4.794   3.683   1.915 -0.3456  0.1261 -0.2575
  223EMI    H07 4222   4.762   3.626   1.603  0.5624  0.1755  0.0767
  223EMI    H09 4223   4.622   3.562   1.981 -1.0559  0.7361 -0.3848
  223EMI    H08 4224   4.853   3.709   2.001  1.4787 -1.4816 -0.9551
  223EMI    C05 4225   4.950   3.786   1.751  0.3709  0.1059 -0.2457
  223EMI    H0B 4226   4.958   3.863   1.826  0.8495 -0.6900  0.5465
  223EMI    H0C 4227   5.039   3.728   1.773  1.8051  1.6002 -1.7866
  223EMI    H0D 4228   4.962   3.823   1.650  1.7503 -2.1473 -0.9953
  223EMI    N00 4229   4.827   3.715   1.786 -0.2172  0.2940  0.1175
  223EMI    C06 4230   4.541   3.512   1.723 -0.3879  0.0986 -0.5248
  223EMI    H0F 4231   4.532   3.538   1.619 -0.3497 -2.5970 -1.2691
  223EMI    C0N 4232   4.557   3.363   1.727  0.1163 -0.8450  0.2033
  223EMI    H0O 4233   4.482   3.311   1.670  1.3255 -2.1135 -0.2815
  223EMI    H0P 4234   4.659   3.350   1.693  0.2180  2.7109 -1.3043
  223EMI    H0Q 4235   4.550   3.313   1.823  2.0486 -0.1317  0.7785
  223EMI    N02 4236   4.651   3.596   1.775 -0.1173  0.6942  0.2260
  223EMI    H0E 4237   4.453   3.553   1.771 -0.3485  0.3483 -0.6612
  224EMI    C01 4238   4.601   1.328   1.033  0.0620  0.3078 -0.7359
  224EMI    C04 4239   4.529   1.509   1.123  0.4017  0.1952  0.0122
  224EMI    C03 4240   4.637   1.539   1.055 -0.7233  0.8254 -0.0991
  224EMI    H07 4241   4.617   1.224   1.012 -1.4876  0.2718 -1.9099
  224EMI    H09 4242   4.469   1.576   1.182 -0.0089 -0.1319 -0.0333
  224EMI    H08 4243   4.685   1.631   1.031  3.0260 -0.6235  1.1047
  224EMI    C05 4244   4.780   1.401   0.894  0.3491  0.2248  0.4980
  224EMI    H0B 4245   4.857   1.473   0.917 -1.0829  1.4963  1.4940
  224EMI    H0C 4246   4.810   1.297   0.885 -0.3002 -0.1044  1.9188
  224EMI    H0D 4247   4.727   1.434   0.806 -0.7954 -0.6948  0.8083
  224EMI    N00 4248   4.677   1.422   0.995 -0.6357 -0.7694  0.5568
  224EMI    C06 4249   4.424   1.294   1.200  0.2960 -0.1125 -0.9962
  224EMI    H0F 4250   4.382   1.363   1.272 -1.4198 -0.7248 -1.3543
  224EMI    C0N 4251   4.329   1.236   1.105 -0.0918 -0.2591  0.3663
  224EMI    H0O 4252   4.380   1.143   1.087  1.6821 -0.4690  5.0052
  224EMI    H0P 4253   4.229   1.216   1.143 -0.6371 -0.6083 -1.1806
  224EMI    H0Q 4254   4.322   1.292   1.013  1.6464 -1.1699 -0.3552
  224EMI    N02 4255   4.525   1.371   1.130 -0.1311  0.0902  0.1964
  224EMI    H0E 4256   4.472   1.229   1.271  0.6358  1.6977  0.5125
  225EMI    C01 4257   2.191   0.383   4.613  0.0015  0.1886 -0.2615
  225EMI    C04 4258   2.208   0.469   4.417  0.5875  0.0557 -0.4996
  225EMI    C03 4259   2.314   0.394   4.436  0.6145 -0.3473  0.0377
  225EMI    H07 4260   2.158   0.348   4.708 -2.0040  0.2205 -0.8986
  225EMI    H09 4261   2.180   0.534   4.337 -0.7592 -0.7814 -0.7430
  225EMI    H08 4262   2.402   0.386   4.377  0.7562 -0.7066  0.2878
  225EMI    C05 4263   2.387   0.236   4.627  0.2344  0.5633  0.1883
  225EMI    H0B 4264   2.487   0.240   4.588 -0.8913 -0.6417 -3.1140
  225EMI    H0C 4265   2.376   0.256   4.733 -1.5765 -0.8955  0.3404
  225EMI    H0D 4266   2.336   0.142   4.609 -0.9207  0.9793  1.0995
  225EMI    N00 4267   2.303   0.339   4.562  0.1839  0.1287 -0.2675
  225EMI    C06 4268   1.999   0.524   4.549 -0.1228 -0.1405  0.0431
  225EMI    H0F 4269   1.920   0.451   4.563  1.7632 -2.3620 -0.2814
  225EMI    C0N 4270   1.999   0.629   4.657 -0.7544 -0.0644 -0.4263
  225EMI    H0O 4271   1.898   0.668   4.672 -0.9666  0.1462 -2.1975
  225EMI    H0P 4272   2.037   0.581   4.746  0.5290  0.8260 -0.4735
  225EMI    H0Q 4273   2.064   0.714   4.640 -1.7800  2.3568  5.4849
  225EMI    N02 4274   2.127   0.455   4.530  0.1600 -0.6052  0.4478
  225EMI    H0E 4275   1.979   0.575   4.455 -0.2823  0.8070  0.5846
  226EMI    C01 4276   3.200   2.693   3.575 -0.4716 -0.3205  0.4502
  226EMI    C04 4277   3.302   2.517   3.652  0.0499  0.1116  0.0616
  226EMI    C03 4278   3.248   2.489   3.536 -0.1317 -0.3585  0.2129
  226EMI    H07 4279   3.169   2.794   3.555  0.6544 -0.4614 -2.6128
  226EMI    H09 4280   3.352   2.454   3.723 -1.2104 -0.7884  0.1862
  226EMI    H08 4281   3.246   2.391   3.492 -1.8068 -0.8721  1.3131
  226EMI    C05 4282   3.145   2.613   3.344  0.3476 -0.0328  0.0908
  226EMI    H0B 4283   3.220   2.575   3.275  0.4656 -0.9194  0.6920
  226EMI    H0C 4284   3.068   2.538   3.335  1.2283 -1.1076  1.0488
  226EMI    H0D 4285   3.119   2.716   3.325 -0.7094 -0.4459 -0.8348
  226EMI    N00 4286   3.196   2.600   3.479 -0.4803 -0.0311  0.0949
  226EMI    C06 4287   3.307   2.722   3.799 -0.4931  0.1287  1.4055
  226EMI    H0F 4288   3.406   2.688   3.824 -0.3833 -0.8071 -0.1978
  226EMI    C0N 4289   3.322   2.868   3.775 -0.4834 -0.9227  0.1468
  226EMI    H0O 4290   3.387   2.894   3.691 -1.4313  0.4030 -0.2044
  226EMI    H0P 4291   3.221   2.903   3.761  0.1853  0.6657 -1.1241
  226EMI    H0Q 4292   3.369   2.923   3.855 -1.4550  1.5481 -0.8678
  226EMI    N02 4293   3.272   2.646   3.677 -0.4533  0.0011  0.4179
  226EMI    H0E 4294   3.240   2.692   3.878 -0.2825 -0.0500  1.5162
  227EMI    C01 4295   3.139   3.300   4.633  0.8498  0.3357 -0.1902
  227EMI    C04 4296   3.285   3.240   4.484 -0.0196 -0.1624 -0.2564
  227EMI    C03 4297   3.226   3.350   4.442  0.5018 -0.2488  0.3607
  227EMI    H07 4298   3.085   3.295   4.725 -0.3328  2.5995 -0.6922
  227EMI    H09 4299   3.357   3.192   4.421  0.3231  1.3882 -1.1028
  227EMI    H08 4300   3.245   3.398   4.349 -0.7179 -1.3779 -0.5280
  227EMI    C05 4301   3.037   3.501   4.524  0.6993  1.3338 -0.3023
  227EMI    H0B 4302   2.941   3.467   4.487  0.6425  2.2123 -0.9832
  227EMI    H0C 4303   3.014   3.553   4.616  0.5492  4.0731 -1.7729
  227EMI    H0D 4304   3.078   3.565   4.447  2.7018  0.0894 -0.3455
  227EMI    N00 4305   3.141   3.393   4.544  0.0699 -0.7285 -0.5320
  227EMI    C06 4306   3.274   3.098   4.689  0.6715 -0.4634  0.1212
  227EMI    H0F 4307   3.222   3.018   4.639 -0.4115  0.4747 -0.2815
  227EMI    C0N 4308   3.426   3.079   4.702 -0.3262  0.4133 -0.3426
  227EMI    H0O 4309   3.482   3.073   4.609 -0.5207 -2.0699 -0.3730
  227EMI    H0P 4310   3.461   3.168   4.751 -0.2239 -0.0410  0.4278
  227EMI    H0Q 4311   3.449   2.995   4.768 -1.6326  0.0788 -0.2839
  227EMI    N02 4312   3.231   3.209   4.603 -0.2633 -0.3689 -0.6359
  227EMI    H0E 4313   3.231   3.116   4.786  1.4280  0.9772  0.2160
  228EMI    C01 4314   4.363   1.906   3.779  0.1295  0.3123  0.2013
  228EMI    C04 4315   4.193   1.762   3.757  0.5898 -0.3405  0.7011
  228EMI    C03 4316   4.195   1.813   3.887 -0.2813  0.4145  0.3901
  228EMI    H07 4317   4.459   1.949   3.758 -0.1872  1.5364  1.1238
  228EMI    H09 4318   4.116   1.706   3.709 -1.2709 -1.1999  4.3669
  228EMI    H08 4319   4.130   1.788   3.967  0.8827 -0.6737  1.0300
  228EMI    C05 4320   4.331   1.983   4.015 -0.0979 -0.1037  0.0628
  228EMI    H0B 4321   4.411   1.943   4.075  1.0531  1.6190 -0.2489
  228EMI    H0C 4322   4.368   2.079   3.981 -1.3026 -0.0696 -1.2640
  228EMI    H0D 4323   4.248   1.993   4.083  1.7800 -3.0420  3.0823
  228EMI    N00 4324   4.297   1.906   3.896 -0.7631  0.1760 -0.4621
  228EMI    C06 4325   4.342   1.806   3.550  0.0693  0.1602  0.0964
  228EMI    H0F 4326   4.446   1.826   3.568  0.6047 -1.3447 -1.1180
  228EMI    C0N 4327   4.322   1.665   3.500 -0.1001 -0.5955 -0.3595
  228EMI    H0O 4328   4.309   1.591   3.579 -2.5145  0.6689  0.5249
  228EMI    H0P 4329   4.231   1.669   3.441 -2.2432 -2.0685  2.5465
  228EMI    H0Q 4330   4.409   1.638   3.441  1.0952 -0.9325  1.4565
  228EMI    N02 4331   4.293   1.830   3.690 -0.6724 -0.1209  0.7770
  228EMI    H0E 4332   4.297   1.874   3.479  0.9591  1.1861  0.4935
  229EMI    C01 4333   0.589   3.773   4.812  0.2230  0.7947  0.0200
  229EMI    C04 4334   0.532   3.950   4.707 -0.3021  0.3018 -0.7186
  229EMI    C03 4335   0.457   3.946   4.813  0.3216  0.5408  0.4186
  229EMI    H07 4336   0.623   3.674   4.832 -2.5461 -0.5596 -1.3798
  229EMI    H09 4337   0.545   4.031   4.640  2.5640  0.6792  0.1610
  229EMI    H08 4338   0.374   4.005   4.845  0.1870  0.6728 -0.1682
  229EMI    C05 4339   0.402   3.749   4.976 -0.2823  0.0766 -0.3155
  229EMI    H0B 4340   0.403   3.793   5.075 -1.7820 -0.5065 -0.0115
  229EMI    H0C 4341   0.303   3.745   4.933 -0.6724 -0.1272  0.5804
  229EMI    H0D 4342   0.442   3.649   4.985 -0.6665 -0.4205 -3.2916
  229EMI    N00 4343   0.486   3.822   4.880 -0.5728  0.0839  0.2516
  229EMI    C06 4344   0.725   3.821   4.611 -0.0506  0.0408 -0.4598
  229EMI    H0F 4345   0.747   3.716   4.621  0.5082 -0.3057 -4.0176
  229EMI    C0N 4346   0.654   3.838   4.485 -0.2575  0.3442  0.4653
  229EMI    H0O 4347   0.708   3.816   4.394  0.2481  2.3285  0.2478
  229EMI    H0P 4348   0.564   3.778   4.475 -0.2677  0.3234  0.6754
  229EMI    H0Q 4349   0.642   3.944   4.467  0.6806  0.4566  0.4554
  229EMI    N02 4350   0.629   3.849   4.714 -0.3671 -0.1269 -0.3709
  229EMI    H0E 4351   0.813   3.880   4.634  2.0763 -2.5829 -1.2893
  230EMI    C01 4352   3.617   2.862   3.346 -0.4901 -0.3095 -0.5168
  230EMI    C04 4353   3.412   2.910   3.305 -0.6865 -0.8391 -0.6663
  230EMI    C03 4354   3.459   2.993   3.406 -0.8823 -0.1108  0.0297
  230EMI    H07 4355   3.710   2.808   3.343 -1.0247 -1.2051 -2.6120
  230EMI    H09 4356   3.321   2.910   3.249  0.1079 -0.2959 -2.0092
  230EMI    H08 4357   3.413   3.073   3.460  0.2842  0.8911 -0.3999
  230EMI    C05 4358   3.657   2.972   3.561 -0.1916  0.7627 -0.2743
  230EMI    H0B 4359   3.719   2.888   3.588 -1.6143 -0.4725 -0.6932
  230EMI    H0C 4360   3.714   3.058   3.527  1.4177 -0.5826 -1.1221
  230EMI    H0D 4361   3.582   2.999   3.634  0.8366 -2.7893  2.3607
  230EMI    N00 4362   3.578   2.935   3.444 -0.3427  0.2501 -0.3374
  230EMI    C06 4363   3.524   2.737   3.147 -0.1993  0.0368  0.6282
  230EMI    H0F 4364   3.483   2.798   3.068 -0.9889  1.8123  2.3128
  230EMI    C0N 4365   3.666   2.700   3.108 -0.3398  0.3710  0.6222
  230EMI    H0O 4366   3.663   2.625   3.030  1.8339 -0.3774  1.1999
  230EMI    H0P 4367   3.733   2.780   3.077 -0.4317  0.1709 -0.0986
  230EMI    H0Q 4368   3.719   2.657   3.192  0.6744  1.7469  0.7288
  230EMI    N02 4369   3.517   2.831   3.260 -0.4558 -0.2214 -0.6203
  230EMI    H0E 4370   3.450   2.659   3.156 -0.0549  0.0361  1.9845
  231EMI    C01 4371   0.886   4.511   3.142  0.2384  0.4675  0.0286
  231EMI    C04 4372   0.696   4.620   3.141 -0.1229  0.8494 -0.7254
  231EMI    C03 4373   0.788   4.692   3.205  0.4397 -0.0239  0.4798
  231EMI    H07 4374   0.951   4.427   3.142 -3.3505 -2.6729  1.9201
  231EMI    H09 4375   0.591   4.635   3.129 -0.2302  1.3774  0.6543
  231EMI    H08 4376   0.782   4.790   3.246 -0.4191  0.2448 -0.2709
  231EMI    C05 4377   1.043   4.678   3.248  0.1834  0.2201 -0.0186
  231EMI    H0B 4378   1.128   4.621   3.215  0.0427 -0.2593  0.4373
  231EMI    H0C 4379   1.056   4.784   3.232 -0.9308  0.6755  1.7744
  231EMI    H0D 4380   1.036   4.666   3.355 -3.8823 -0.5205 -0.1842
  231EMI    N00 4381   0.912   4.628   3.196 -0.1312  0.2776  0.1949
  231EMI    C06 4382   0.686   4.374   3.081 -0.3685 -0.3244  0.7247
  231EMI    H0F 4383   0.611   4.350   3.155 -1.3204  0.0366 -0.1100
  231EMI    C0N 4384   0.625   4.386   2.940  0.2067 -0.4830 -0.4635
  231EMI    H0O 4385   0.603   4.286   2.904  1.0723 -0.8308 -0.0427
  231EMI    H0P 4386   0.529   4.436   2.943  1.6899  2.5389  1.2312
  231EMI    H0Q 4387   0.692   4.442   2.876 -0.8310  0.6753 -0.5723
  231EMI    N02 4388   0.756   4.496   3.115  0.3084  0.6770 -0.1495
  231EMI    H0E 4389   0.765   4.299   3.085 -1.3184 -1.5034 -1.2815
  232EMI    C01 4390   1.438   3.474   3.114 -0.5577  0.4813  0.1904
  232EMI    C04 4391   1.383   3.333   3.276 -0.2143 -0.2430  0.2098
  232EMI    C03 4392   1.291   3.319   3.177  0.1350  0.1645  0.2445
  232EMI    H07 4393   1.485   3.554   3.062 -0.9049  1.1331  0.8719
  232EMI    H09 4394   1.389   3.276   3.366 -0.7736  1.8124  1.6118
  232EMI    H08 4395   1.208   3.253   3.174 -1.0978  1.5734  1.6247
  232EMI    C05 4396   1.249   3.439   2.956 -0.4414 -0.5955 -0.2286
  232EMI    H0B 4397   1.200   3.533   2.976  1.7581  0.5528  0.0097
  232EMI    H0C 4398   1.303   3.449   2.863 -1.2943 -2.5790 -0.9834
  232EMI    H0D 4399   1.172   3.363   2.954 -0.2049 -0.8905  0.8150
  232EMI    N00 4400   1.331   3.405   3.076 -0.4138  0.6144 -0.0881
  232EMI    C06 4401   1.595   3.474   3.315 -0.4854  0.0383  0.8213
  232EMI    H0F 4402   1.654   3.533   3.246 -0.0459 -0.0606  1.1103
  232EMI    C0N 4403   1.548   3.561   3.430  0.5296 -0.4505  0.0602
  232EMI    H0O 4404   1.453   3.533   3.475 -0.1098  0.6211 -0.5661
  232EMI    H0P 4405   1.616   3.574   3.513 -2.2117  1.8909  2.1156
  232EMI    H0Q 4406   1.526   3.657   3.385  2.3951 -0.2900 -0.5812
  232EMI    N02 4407   1.477   3.429   3.238  1.0915  0.4682  0.1727
  232EMI    H0E 4408   1.655   3.392   3.352  2.3598  0.6140 -2.0069
  233EMI    C01 4409   1.000   1.492   0.075  0.0686 -0.7116  0.3422
  233EMI    C04 4410   1.143   1.356  -0.012  0.1247  0.1780  0.5759
  233EMI    C03 4411   1.204   1.474  -0.002  0.1542 -0.6641 -0.6913
  233EMI    H07 4412   0.916   1.527   0.132  1.2766  0.5016  1.4894
  233EMI    H09 4413   1.182   1.270  -0.062  0.7279  1.7474 -1.7792
  233EMI    H08 4414   1.300   1.509  -0.030 -0.7051  0.9303 -1.8272
  233EMI    C05 4415   1.113   1.714   0.046  0.0595  0.1419  0.2552
  233EMI    H0B 4416   1.217   1.744   0.054  0.4271 -0.6640 -1.2572
  233EMI    H0C 4417   1.081   1.752  -0.050 -0.4839 -1.2719 -0.1451
  233EMI    H0D 4418   1.049   1.749   0.126 -0.2989  2.2436 -0.8825
  233EMI    N00 4419   1.109   1.568   0.047 -0.2151  0.2835  0.0327
  233EMI    C06 4420   0.919   1.253   0.045 -0.6543  0.0441  0.5063
  233EMI    H0F 4421   0.821   1.291   0.071 -1.1221 -1.2356  0.7187
  233EMI    C0N 4422   0.912   1.162  -0.082 -0.0783 -0.4756  0.0279
  233EMI    H0O 4423   0.885   1.223  -0.167  0.5160  2.3714  1.7508
  233EMI    H0P 4424   1.010   1.126  -0.110  0.4748  1.0437 -0.0552
  233EMI    H0Q 4425   0.847   1.076  -0.072  0.9655 -1.5569 -1.9851
  233EMI    N02 4426   1.017   1.367   0.040  0.3379  0.0991  0.1134
  233EMI    H0E 4427   0.956   1.186   0.121  1.5912 -0.1719 -0.6721
  234EMI    C01 4428   1.156   3.689   2.425 -0.0748  0.3519  0.0679
  234EMI    C04 4429   1.175   3.894   2.494  0.3760 -0.5510  0.4073
  234EMI    C03 4430   1.125   3.822   2.597  0.4408  0.1109 -0.3173
  234EMI    H07 4431   1.159   3.603   2.363 -0.8367  0.7200 -0.4819
  234EMI    H09 4432   1.190   4.000   2.484  1.1250 -0.8142 -1.7239
  234EMI    H08 4433   1.095   3.850   2.696  1.9851 -0.1964  0.2814
  234EMI    C05 4434   1.061   3.576   2.627  0.3274 -0.8667 -0.1196
  234EMI    H0B 4435   0.956   3.557   2.609  0.2367 -0.5615  0.0758
  234EMI    H0C 4436   1.126   3.495   2.597  2.5743  0.0482  1.9195
  234EMI    H0D 4437   1.072   3.604   2.731 -1.4638  0.8373 -0.3381
  234EMI    N00 4438   1.115   3.687   2.553 -0.0811  0.3114  0.1009
  234EMI    C06 4439   1.274   3.848   2.267  0.1140  0.0098  0.6769
  234EMI    H0F 4440   1.233   3.941   2.232  0.1552  0.5476  1.9959
  234EMI    C0N 4441   1.419   3.850   2.288 -0.3893 -0.0642 -0.0150
  234EMI    H0O 4442   1.450   3.941   2.338 -1.1780 -1.0466  2.3961
  234EMI    H0P 4443   1.451   3.774   2.357  0.3986 -0.3336 -0.6606
  234EMI    H0Q 4444   1.473   3.833   2.195 -0.6522  0.0547 -0.1902
  234EMI    N02 4445   1.205   3.805   2.392  0.5433 -0.1095  0.6641
  234EMI    H0E 4446   1.233   3.783   2.190 -0.0344 -1.2912  1.8061
  235EMI    C01 4447   2.948   3.293   0.340 -0.0856  0.9044 -0.0509
  235EMI    C04 4448   2.879   3.127   0.455 -0.1064  0.6000  0.2416
  235EMI    C03 4449   3.009   3.132   0.470 -0.0999  0.7692  0.2463
  235EMI    H07 4450   2.956   3.366   0.262  1.4345 -0.0550 -0.8394
  235EMI    H09 4451   2.809   3.066   0.509  1.3822 -1.4850 -0.0426
  235EMI    H08 4452   3.066   3.070   0.536 -0.3996  0.1421 -0.0778
  235EMI    C05 4453   3.189   3.276   0.379  0.6518  0.7128  0.1527
  235EMI    H0B 4454   3.209   3.289   0.273 -2.6736  1.1057 -0.5425
  235EMI    H0C 4455   3.186   3.378   0.415  1.3387  1.8848 -2.7652
  235EMI    H0D 4456   3.259   3.217   0.436 -0.1859 -1.0660 -0.5771
  235EMI    N00 4457   3.050   3.228   0.388 -0.1866  0.1538  0.0460
  235EMI    C06 4458   2.704   3.279   0.359 -0.1009  0.2163  0.6034
  235EMI    H0F 4459   2.662   3.286   0.458 -0.3156  0.1608  0.5166
  235EMI    C0N 4460   2.698   3.423   0.305 -0.1653 -0.0214  0.3726
  235EMI    H0O 4461   2.738   3.492   0.379 -1.3788  0.9533  0.1443
  235EMI    H0P 4462   2.755   3.433   0.214 -0.9020  3.2134  0.1607
  235EMI    H0Q 4463   2.595   3.443   0.280  0.3965  1.5321 -0.8658
  235EMI    N02 4464   2.837   3.232   0.378 -0.1254 -0.2484  0.8916
  235EMI    H0E 4465   2.642   3.213   0.301  0.2841  0.2088  0.1922
  236EMI    C01 4466   0.259   4.710   0.827 -0.5585 -0.0516 -0.3608
  236EMI    C04 4467   0.196   4.895   0.722  0.2802 -0.5842  0.9616
  236EMI    C03 4468   0.233   4.804   0.629  0.2263 -0.1822  0.5930
  236EMI    H07 4469   0.269   4.638   0.906  2.7599  2.5487  1.8922
  236EMI    H09 4470   0.149   4.991   0.718 -0.6578 -1.0654 -1.2726
  236EMI    H08 4471   0.222   4.828   0.525 -0.2383 -0.1579  0.6460
  236EMI    C05 4472   0.296   4.554   0.641 -0.5205  0.4097 -0.3210
  236EMI    H0B 4473   0.213   4.532   0.575  0.4206  0.3237 -1.5121
  236EMI    H0C 4474   0.394   4.569   0.597 -1.5242  1.3866 -2.3727
  236EMI    H0D 4475   0.311   4.481   0.719  2.4634  0.8789 -0.3265
  236EMI    N00 4476   0.263   4.688   0.696  0.1497  0.4125 -0.7441
  236EMI    C06 4477   0.195   4.904   0.976  0.5626  0.0491  0.4114
  236EMI    H0F 4478   0.284   4.956   1.008  1.5227  1.1363 -3.5727
  236EMI    C0N 4479   0.070   4.991   0.983 -0.3624 -0.1844  0.5198
  236EMI    H0O 4480   0.099   5.077   0.923  2.5138 -1.2854  0.1565
  236EMI    H0P 4481  -0.025   4.947   0.957 -0.0552  0.1071 -1.1626
  236EMI    H0Q 4482   0.078   5.031   1.084 -0.9447  1.1434  0.0653
  236EMI    N02 4483   0.219   4.834   0.844  0.1253 -0.5203  0.6947
  236EMI    H0E 4484   0.188   4.823   1.047  2.6427 -0.1410  0.4853
  237EMI    C01 4485   2.550   0.476   3.757  0.7128  0.2583 -0.1089
  237EMI    C04 4486   2.594   0.282   3.685 -0.7280  0.2875  0.3722
  237EMI    C03 4487   2.688   0.363   3.633 -1.1772  0.3163  0.1042
  237EMI    H07 4488   2.502   0.560   3.803  0.3418  0.7936 -1.4272
  237EMI    H09 4489   2.583   0.180   3.657  0.5947  0.5588 -1.3351
  237EMI    H08 4490   2.766   0.333   3.566  0.9671  0.6437  2.2800
  237EMI    C05 4491   2.756   0.604   3.698 -0.0775  0.2141  0.1763
  237EMI    H0B 4492   2.706   0.689   3.655  1.2783  0.2252 -1.4626
  237EMI    H0C 4493   2.785   0.621   3.800  0.9031 -0.0003 -0.0598
  237EMI    H0D 4494   2.846   0.585   3.641 -0.4946 -1.2237 -0.0558
  237EMI    N00 4495   2.669   0.485   3.698 -0.2353 -0.5105 -0.2361
  237EMI    C06 4496   2.395   0.307   3.840 -0.4563 -0.1600  0.8333
  237EMI    H0F 4497   2.376   0.390   3.906  1.1354  1.6261 -0.8233
  237EMI    C0N 4498   2.275   0.290   3.752  0.3157 -0.2889  0.0715
  237EMI    H0O 4499   2.293   0.215   3.675 -3.6552 -0.6149 -0.7410
  237EMI    H0P 4500   2.191   0.241   3.799  1.7881 -1.0674  2.0403
  237EMI    H0Q 4501   2.253   0.388   3.712  0.9357  0.1102  0.6736
  237EMI    N02 4502   2.509   0.354   3.765 -0.7178 -0.0876 -0.2933
  237EMI    H0E 4503   2.433   0.223   3.896  0.7093 -0.5794 -0.5219
  238EMI    C01 4504   4.711   0.307   2.795  0.1771 -0.5541 -0.2837
  238EMI    C04 4505   4.880   0.404   2.709 -0.2497  0.1269  0.1573
  238EMI    C03 4506   4.891   0.409   2.842 -0.1988  0.1292  0.4285
  238EMI    H07 4507   4.623   0.247   2.809 -0.1222  0.0987  0.6870
  238EMI    H09 4508   4.943   0.429   2.627 -0.5244 -1.1340 -0.4637
  238EMI    H08 4509   4.973   0.444   2.900 -1.1486  2.3409  0.5351
  238EMI    C05 4510   4.777   0.276   3.030 -0.3139  0.0403 -0.0778
  238EMI    H0B 4511   4.846   0.307   3.107 -0.1394  0.8775 -0.5639
  238EMI    H0C 4512   4.673   0.296   3.054 -0.3888  0.5396 -0.7775
  238EMI    H0D 4513   4.792   0.172   3.008  2.7825  0.7685 -2.0796
  238EMI    N00 4514   4.796   0.322   2.893  0.2478  0.3789 -0.0895
  238EMI    C06 4515   4.684   0.352   2.558 -0.1767 -0.2600 -0.0586
  238EMI    H0F 4516   4.682   0.455   2.525  0.3377 -0.2735 -0.1371
  238EMI    C0N 4517   4.738   0.258   2.463 -0.1779  0.6702  0.2980
  238EMI    H0O 4518   4.701   0.284   2.365 -0.1236 -0.1031  0.0685
  238EMI    H0P 4519   4.846   0.270   2.462 -0.1546  0.8188  1.7006
  238EMI    H0Q 4520   4.711   0.154   2.472 -0.9254  0.5457 -2.5254
  238EMI    N02 4521   4.760   0.348   2.685 -0.3971 -0.6554  0.4321
  238EMI    H0E 4522   4.584   0.329   2.591 -0.7831  0.4907 -1.3060
  239EMI    C01 4523   0.341   3.004   4.607 -0.1926 -0.5782  0.0868
  239EMI    C04 4524   0.188   2.952   4.758  0.3102  1.2322 -0.3336
  239EMI    C03 4525   0.292   2.864   4.766  0.6245  0.2638 -0.4109
  239EMI    H07 4526   0.387   3.035   4.516 -1.0799 -2.4378 -1.0446
  239EMI    H09 4527   0.095   2.951   4.810  0.1387  0.0462 -0.6392
  239EMI    H08 4528   0.300   2.779   4.831  2.6819  0.5350 -0.2291
  239EMI    C05 4529   0.514   2.825   4.654  0.4365  0.0765  0.1167
  239EMI    H0B 4530   0.554   2.777   4.743  0.2270 -1.7811 -0.7414
  239EMI    H0C 4531   0.507   2.750   4.576  0.0548 -1.3950  1.5139
  239EMI    H0D 4532   0.588   2.894   4.615 -2.1627  2.0871 -1.5697
  239EMI    N00 4533   0.392   2.905   4.679 -0.2721  0.0045  0.0794
  239EMI    C06 4534   0.121   3.123   4.587 -0.3976 -0.0381 -0.0577
  239EMI    H0F 4535   0.104   3.210   4.649 -1.2262  0.3708 -0.8416
  239EMI    C0N 4536   0.142   3.162   4.444 -0.7213  0.2916 -0.4628
  239EMI    H0O 4537   0.189   3.077   4.396  1.1483  2.2678 -2.3246
  239EMI    H0P 4538   0.046   3.180   4.397 -0.0914  2.0127 -1.1562
  239EMI    H0Q 4539   0.219   3.238   4.440  1.1045 -1.3396  1.3574
  239EMI    N02 4540   0.221   3.040   4.655  0.5058 -0.3760  0.6179
  239EMI    H0E 4541   0.028   3.068   4.579 -0.7761  0.0978  2.3625
  240EMI    C01 4542   2.462   1.531   0.124 -0.1453 -0.5963 -0.5178
  240EMI    C04 4543   2.577   1.512  -0.057 -0.2126 -0.4128 -0.5169
  240EMI    C03 4544   2.652   1.467   0.046 -0.3091  1.1494  0.3930
  240EMI    H07 4545   2.398   1.578   0.196  2.4897  2.1485  0.2482
  240EMI    H09 4546   2.588   1.506  -0.163  0.7573  2.3127 -0.6285
  240EMI    H08 4547   2.750   1.425   0.054 -0.4345  0.3751 -1.6417
  240EMI    C05 4548   2.644   1.481   0.293  0.1488  1.1076 -0.3449
  240EMI    H0B 4549   2.634   1.380   0.331 -0.0416  0.8283 -1.0974
  240EMI    H0C 4550   2.750   1.500   0.292  0.5545 -0.6803 -2.7383
  240EMI    H0D 4551   2.586   1.550   0.352 -0.2231  0.8306 -0.3816
  240EMI    N00 4552   2.586   1.500   0.161 -0.3788  0.3598  0.2386
  240EMI    C06 4553   2.357   1.624  -0.089 -0.3038  0.2297 -0.4615
  240EMI    H0F 4554   2.396   1.714  -0.135  0.8025 -0.0153 -0.0238
  240EMI    C0N 4555   2.309   1.538  -0.199 -0.4598 -0.1717  0.5885
  240EMI    H0O 4556   2.232   1.591  -0.253  0.5710  0.6873 -0.0824
  240EMI    H0P 4557   2.390   1.508  -0.265 -2.1634 -0.9445 -1.2483
  240EMI    H0Q 4558   2.262   1.445  -0.168 -0.8711 -0.4654 -0.8698
  240EMI    N02 4559   2.461   1.558  -0.005  0.1519  0.4625  0.6101
  240EMI    H0E 4560   2.269   1.647  -0.031 -0.5993  3.0817 -1.8668
  241EMI    C01 4561   4.943   1.945   2.824  0.0434  0.4515  0.8339
  241EMI    C04 4562   4.799   1.780   2.813  0.4079  0.2045  0.0291
  241EMI    C03 4563   4.772   1.866   2.715  0.7261  0.3904 -0.3596
  241EMI    H07 4564   5.027   2.009   2.838  0.0721  0.7577 -0.5982
  241EMI    H09 4565   4.752   1.688   2.839 -0.2791  0.9798  1.6472
  241EMI    H08 4566   4.692   1.875   2.644  0.1492 -0.4380  0.1658
  241EMI    C05 4567   4.844   2.102   2.667 -0.4989  0.5708 -0.1827
  241EMI    H0B 4568   4.748   2.130   2.625 -1.2307 -2.4073 -0.7049
  241EMI    H0C 4569   4.871   2.182   2.734 -0.9607  0.6879 -0.1291
  241EMI    H0D 4570   4.913   2.109   2.585  1.2655  2.2661  1.3540
  241EMI    N00 4571   4.854   1.973   2.730 -0.4597  0.1505  0.2702
  241EMI    C06 4572   4.956   1.779   3.005 -0.7608 -0.4172  0.0421
  241EMI    H0F 4573   5.033   1.848   3.038 -0.0624 -1.1206 -0.0804
  241EMI    C0N 4574   4.848   1.768   3.110  0.0381 -0.5849 -0.7490
  241EMI    H0O 4575   4.821   1.868   3.142  0.2958 -1.3477  2.0985
  241EMI    H0P 4576   4.757   1.720   3.075  1.0624 -3.7550  0.5591
  241EMI    H0Q 4577   4.883   1.713   3.197  0.0328  2.0874  1.0645
  241EMI    N02 4578   4.901   1.835   2.885  0.4101  0.4520  0.9435
  241EMI    H0E 4579   5.017   1.693   2.981 -0.1473 -0.2911  1.0811
  242EMI    C01 4580   1.139   0.383   0.685 -0.4112  0.0681  0.2351
  242EMI    C04 4581   1.052   0.467   0.514 -0.5303 -0.4212  0.1165
  242EMI    C03 4582   1.184   0.459   0.493 -0.9681 -0.3637 -0.3675
  242EMI    H07 4583   1.147   0.319   0.769 -0.8865  0.2609  0.4303
  242EMI    H09 4584   0.980   0.515   0.452 -0.2262  0.1734  0.2185
  242EMI    H08 4585   1.243   0.487   0.408 -0.6374 -0.4112 -0.1571
  242EMI    C05 4586   1.369   0.334   0.613  0.1202  0.0550  0.6443
  242EMI    H0B 4587   1.390   0.292   0.710  0.5657  2.2468  1.5571
  242EMI    H0C 4588   1.390   0.261   0.536 -0.5996 -0.0209  0.5106
  242EMI    H0D 4589   1.437   0.413   0.584 -1.1962  1.5377  1.4371
  242EMI    N00 4590   1.231   0.383   0.599  0.0307 -0.4803 -0.0277
  242EMI    C06 4591   0.892   0.396   0.693  0.0059  0.0079  0.1422
  242EMI    H0F 4592   0.841   0.488   0.716  0.3395  0.0022  0.9301
  242EMI    C0N 4593   0.807   0.316   0.598  0.2684 -0.0247  1.0827
  242EMI    H0O 4594   0.730   0.264   0.654  0.4966 -0.6533  0.8154
  242EMI    H0P 4595   0.760   0.380   0.524 -0.1127 -1.9805 -0.4412
  242EMI    H0Q 4596   0.861   0.247   0.534 -0.2175  1.4878 -1.0389
  242EMI    N02 4597   1.024   0.425   0.635 -0.5785  0.1365  0.5000
  242EMI    H0E 4598   0.914   0.339   0.783 -1.2600 -0.1690  0.3594
  243EMI    C01 4599   2.561   3.989   0.171 -0.7175 -0.4022  0.5181
  243EMI    C04 4600   2.749   3.956   0.277 -0.2801  0.3755  0.1913
  243EMI    C03 4601   2.709   4.082   0.291  0.2804 -0.5707 -0.4204
  243EMI    H07 4602   2.475   3.967   0.113 -0.1053  0.9043 -0.9677
  243EMI    H09 4603   2.836   3.907   0.313  0.1771 -1.0263 -2.6071
  243EMI    H08 4604   2.763   4.163   0.335  2.5430 -2.3933  0.3798
  243EMI    C05 4605   2.535   4.236   0.216 -0.7048 -0.5541  0.0756
  243EMI    H0B 4606   2.453   4.242   0.285  0.3560 -1.4252  1.4852
  243EMI    H0C 4607   2.601   4.322   0.221 -1.5461  0.5446 -4.0613
  243EMI    H0D 4608   2.491   4.245   0.118  2.2912  1.3311 -1.2630
  243EMI    N00 4609   2.599   4.101   0.223  0.1891 -0.4913  0.2505
  243EMI    C06 4610   2.652   3.762   0.142  0.3523 -0.1596 -0.3530
  243EMI    H0F 4611   2.632   3.683   0.214 -1.9536  0.0355 -0.6842
  243EMI    C0N 4612   2.584   3.729   0.016 -0.7555  0.3150  0.5358
  243EMI    H0O 4613   2.632   3.640  -0.023  0.1221  1.2592 -0.6079
  243EMI    H0P 4614   2.477   3.716   0.026 -0.5221 -0.4470  2.4563
  243EMI    H0Q 4615   2.597   3.803  -0.063 -0.1477 -0.1406  0.2049
  243EMI    N02 4616   2.647   3.895   0.199 -0.3984  0.5698 -0.1500
  243EMI    H0E 4617   2.755   3.754   0.112 -0.3480 -1.2808 -2.7021
  244EMI    C01 4618   4.402   1.700   0.279 -0.3334 -0.8304  1.1928
  244EMI    C04 4619   4.480   1.868   0.388 -0.3633  0.3528 -0.1636
  244EMI    C03 4620   4.580   1.797   0.340  0.2521 -0.2863  0.8102
  244EMI    H07 4621   4.337   1.635   0.226  0.1238 -0.5799  0.3152
  244EMI    H09 4622   4.485   1.962   0.439 -1.6564  1.8521 -2.5974
  244EMI    H08 4623   4.683   1.818   0.356  0.6909 -0.8520 -1.0380
  244EMI    C05 4624   4.604   1.578   0.198  1.5640  0.0349  0.5489
  244EMI    H0B 4625   4.557   1.484   0.175  2.1853 -0.0417 -0.4853
  244EMI    H0C 4626   4.646   1.632   0.115  1.4297 -0.5486  0.0983
  244EMI    H0D 4627   4.676   1.556   0.275  2.9427  4.0192  0.6525
  244EMI    N00 4628   4.531   1.685   0.278  0.2739 -0.0466  0.3957
  244EMI    C06 4629   4.234   1.871   0.371 -0.0172 -0.0159  0.0639
  244EMI    H0F 4630   4.160   1.793   0.363  2.0831 -2.3859  1.9688
  244EMI    C0N 4631   4.218   1.921   0.512 -0.3510  0.4822 -0.5393
  244EMI    H0O 4632   4.112   1.918   0.537 -0.2452 -2.4954  0.0129
  244EMI    H0P 4633   4.247   1.833   0.569  1.0823 -0.1172 -2.1164
  244EMI    H0Q 4634   4.279   2.005   0.541  2.4329 -1.8100  0.6720
  244EMI    N02 4635   4.366   1.806   0.346  0.1311 -0.7373  0.7736
  244EMI    H0E 4636   4.223   1.946   0.294  2.7843 -2.1899 -2.7621
  245EMI    C01 4637   2.097   3.358   0.201 -0.0406 -0.0285  0.3804
  245EMI    C04 4638   2.249   3.242   0.282 -0.7915  0.0475  0.4702
  245EMI    C03 4639   2.289   3.371   0.283 -0.0814  0.0140 -0.4703
  245EMI    H07 4640   2.016   3.395   0.141  0.1824  1.3334  0.8846
  245EMI    H09 4641   2.309   3.156   0.306  0.5919  1.4712  2.5093
  245EMI    H08 4642   2.385   3.412   0.304 -0.7551  0.9516  0.9253
  245EMI    C05 4643   2.170   3.590   0.233  0.0841  0.2704 -0.5162
  245EMI    H0B 4644   2.113   3.610   0.143 -0.1324  1.3641 -0.1445
  245EMI    H0C 4645   2.110   3.615   0.319 -0.2166  0.2246 -0.7112
  245EMI    H0D 4646   2.263   3.644   0.229  0.3470  0.0186  1.3255
  245EMI    N00 4647   2.187   3.444   0.240 -0.1193  0.1104 -0.5416
  245EMI    C06 4648   2.059   3.107   0.195  0.4016 -0.0156  0.5841
  245EMI    H0F 4649   2.057   3.088   0.089  0.6072 -3.0521  1.0287
  245EMI    C0N 4650   2.117   2.985   0.267 -0.3358 -0.0387 -0.1083
  245EMI    H0O 4651   2.107   2.976   0.374  1.3093 -1.2748 -0.0199
  245EMI    H0P 4652   2.074   2.901   0.215  1.5827  0.5628 -2.8927
  245EMI    H0Q 4653   2.224   2.976   0.256 -0.3943 -3.0999  0.9467
  245EMI    N02 4654   2.128   3.234   0.229 -0.0367  0.0579  0.8086
  245EMI    H0E 4655   1.957   3.124   0.225 -1.0918 -1.7278 -2.8976
  246EMI    C01 4656   0.624   1.280   0.646 -0.0551 -0.3595 -0.5440
  246EMI    C04 4657   0.512   1.097   0.590 -0.1787  0.1205 -0.1305
  246EMI    C03 4658   0.586   1.072   0.693  0.1500  0.2899 -0.3644
  246EMI    H07 4659   0.680   1.370   0.629  0.6048 -0.2684  1.7270
  246EMI    H09 4660   0.442   1.035   0.537  0.4565 -0.6734 -0.0627
  246EMI    H08 4661   0.605   0.984   0.750  1.3482  0.3794 -0.6008
  246EMI    C05 4662   0.705   1.210   0.871 -0.0835  0.2799 -0.6581
  246EMI    H0B 4663   0.680   1.128   0.936  1.0340 -0.1133 -0.7015
  246EMI    H0C 4664   0.809   1.219   0.844 -0.3981  0.4854 -1.9038
  246EMI    H0D 4665   0.687   1.312   0.904  2.2832  1.4435 -2.6203
  246EMI    N00 4666   0.638   1.189   0.740 -0.1508 -0.4915 -0.0379
  246EMI    C06 4667   0.477   1.301   0.446  0.5943  0.6555 -0.2287
  246EMI    H0F 4668   0.470   1.239   0.358 -1.4420 -1.4714  1.3172
  246EMI    C0N 4669   0.336   1.340   0.490 -0.1026  0.4094  0.1764
  246EMI    H0O 4670   0.292   1.262   0.551  0.6568  0.3629  0.6821
  246EMI    H0P 4671   0.358   1.425   0.554  1.1151 -0.1911  0.5858
  246EMI    H0Q 4672   0.274   1.361   0.403 -1.1043  1.0057  0.9981
  246EMI    N02 4673   0.537   1.231   0.563 -0.0225 -0.1332  0.5227
  246EMI    H0E 4674   0.532   1.391   0.420  0.5608 -0.2354 -3.9581
  247EMI    C01 4675   1.818   1.784   0.233 -0.0974 -0.0322  0.2692
  247EMI    C04 4676   1.701   1.884   0.386 -0.4042  0.8448 -0.1037
  247EMI    C03 4677   1.820   1.863   0.437 -0.6558  0.1726 -0.4515
  247EMI    H07 4678   1.844   1.738   0.140  0.5138 -1.1643  0.9698
  247EMI    H09 4679   1.612   1.931   0.421 -1.3777 -0.5501 -0.6043
  247EMI    H08 4680   1.857   1.900   0.530  2.8243 -0.1321 -1.5775
  247EMI    C05 4681   2.041   1.766   0.346  0.4203  0.0386 -1.0203
  247EMI    H0B 4682   2.057   1.689   0.420 -0.8086  0.3855 -0.3602
  247EMI    H0C 4683   2.053   1.728   0.245 -0.1990 -1.0822 -0.6912
  247EMI    H0D 4684   2.099   1.855   0.361 -2.6946  2.0051  0.3872
  247EMI    N00 4685   1.898   1.809   0.337  0.0912  0.5986  0.0564
  247EMI    C06 4686   1.580   1.807   0.168 -0.0400 -0.0713  0.5800
  247EMI    H0F 4687   1.501   1.739   0.195  0.0260 -1.7953 -2.9549
  247EMI    C0N 4688   1.529   1.937   0.114 -0.1143 -0.2293 -0.4013
  247EMI    H0O 4689   1.591   1.967   0.030 -1.5706  0.7313 -1.1797
  247EMI    H0P 4690   1.429   1.935   0.072 -0.4969 -0.3282  0.4925
  247EMI    H0Q 4691   1.533   2.011   0.193 -0.1192 -0.9037  0.2344
  247EMI    N02 4692   1.698   1.821   0.263 -0.3101 -0.3700  0.6966
  247EMI    H0E 4693   1.636   1.768   0.084  0.4671  2.7375 -0.5001
  248EMI    C01 4694   3.471   3.880   1.643 -0.2676  0.1686  0.5010
  248EMI    C04 4695   3.592   3.754   1.516 -0.1484  0.8068  0.3145
  248EMI    C03 4696   3.563   3.686   1.630  0.3953 -0.1558  0.5787
  248EMI    H07 4697   3.401   3.956   1.672 -0.8207 -0.9054  2.0835
  248EMI    H09 4698   3.654   3.728   1.432 -1.0450 -1.0928  0.1757
  248EMI    H08 4699   3.580   3.584   1.657 -0.3667 -0.8825 -1.4654
  248EMI    C05 4700   3.419   3.740   1.837 -0.0162 -0.3264  0.7175
  248EMI    H0B 4701   3.497   3.744   1.911  1.4329 -0.5943 -0.7537
  248EMI    H0C 4702   3.342   3.811   1.866 -0.1249  0.7293 -1.8981
  248EMI    H0D 4703   3.368   3.645   1.832 -1.3028  0.2488  1.9953
  248EMI    N00 4704   3.475   3.764   1.698  0.4968 -0.4461  0.3885
  248EMI    C06 4705   3.521   3.983   1.422 -0.1344  0.1464  0.3936
  248EMI    H0F 4706   3.513   3.919   1.336  0.7466 -0.7791  0.9792
  248EMI    C0N 4707   3.386   4.058   1.426 -0.1738  0.9322 -0.5068
  248EMI    H0O 4708   3.300   3.993   1.415 -0.5762  1.6952 -2.1924
  248EMI    H0P 4709   3.366   4.122   1.512  2.2976  1.7152 -0.4433
  248EMI    H0Q 4710   3.380   4.124   1.341  1.1887 -0.2368 -1.5543
  248EMI    N02 4711   3.535   3.882   1.528  0.0305  0.2505 -0.7678
  248EMI    H0E 4712   3.615   4.037   1.424 -0.8855  1.4858  1.7065
  249EMI    C01 4713   3.535   1.676   4.382  0.1415  0.4327  0.6242
  249EMI    C04 4714   3.476   1.713   4.584  0.3473  0.3720 -1.0700
  249EMI    C03 4715   3.430   1.815   4.506  0.2939 -0.4477  0.1749
  249EMI    H07 4716   3.576   1.630   4.295 -0.7733  1.3855 -0.3452
  249EMI    H09 4717   3.465   1.691   4.688 -0.1447 -0.2392 -1.2430
  249EMI    H08 4718   3.362   1.895   4.525 -0.5540 -1.2050  0.3952
  249EMI    C05 4719   3.467   1.876   4.260 -0.2570  0.8036 -0.6123
  249EMI    H0B 4720   3.488   1.819   4.171  2.1675 -1.2006  1.0908
  249EMI    H0C 4721   3.367   1.916   4.259 -0.2588  0.8610  0.3734
  249EMI    H0D 4722   3.526   1.965   4.277 -1.2704  1.6041 -1.2078
  249EMI    N00 4723   3.481   1.792   4.377  0.2376 -0.7379 -0.5091
  249EMI    C06 4724   3.629   1.503   4.539 -0.3778 -0.1959  0.0332
  249EMI    H0F 4725   3.721   1.531   4.590 -0.8065  1.6670 -0.1267
  249EMI    C0N 4726   3.547   1.406   4.615  0.5226 -0.0685  0.2507
  249EMI    H0O 4727   3.617   1.325   4.632 -0.5016 -0.9477  0.4480
  249EMI    H0P 4728   3.512   1.437   4.713  2.1002 -0.9435  1.1449
  249EMI    H0Q 4729   3.458   1.364   4.570  0.6772 -0.7382  0.5452
  249EMI    N02 4730   3.547   1.627   4.503 -0.8247 -0.3158  0.0759
  249EMI    H0E 4731   3.653   1.457   4.445 -1.2540  0.0085 -0.2931
  250EMI    C01 4732   2.113   4.943   4.172 -0.1594 -0.2432  0.3057
  250EMI    C04 4733   2.100   4.987   3.961  0.5857  0.2003 -0.2290
  250EMI    C03 4734   1.977   4.949   3.997  0.6250 -0.9481  0.2124
  250EMI    H07 4735   2.151   4.921   4.269  2.4294  1.1867 -0.2873
  250EMI    H09 4736   2.148   5.006   3.867  0.3345 -1.0864 -0.6362
  250EMI    H08 4737   1.888   4.944   3.938  0.8840 -0.7101 -0.2086
  250EMI    C05 4738   1.878   4.883   4.220  1.0880 -0.1988  0.8352
  250EMI    H0B 4739   1.792   4.948   4.211  1.0988 -0.2319  0.4868
  250EMI    H0C 4740   1.844   4.791   4.175 -2.3167  1.0340  0.5976
  250EMI    H0D 4741   1.907   4.866   4.322 -0.3510  0.4544  1.3785
  250EMI    N00 4742   1.986   4.930   4.134 -0.1226 -0.0684 -1.3362
  250EMI    C06 4743   2.321   5.027   4.071  0.3976  0.2193  0.2203
  250EMI    H0F 4744   2.355   5.053   3.971  0.6030  0.5372  0.3739
  250EMI    C0N 4745   2.341   5.158   4.147 -0.2754 -0.2466 -0.5303
  250EMI    H0O 4746   2.338   5.143   4.254  2.2742 -1.9887 -0.5948
  250EMI    H0P 4747   2.439   5.201   4.128  1.5395 -4.2320 -1.0979
  250EMI    H0Q 4748   2.259   5.224   4.121  0.0886 -0.3236 -1.9788
  250EMI    N02 4749   2.180   4.992   4.070 -0.0866 -0.1840  0.1578
  250EMI    H0E 4750   2.378   4.944   4.110 -0.4312 -0.6603 -0.3792
  251EMI    C01 4751   2.219   4.551   1.309  0.2633 -0.4133  0.3587
  251EMI    C04 4752   2.323   4.610   1.491  0.9861  0.8264 -0.1599
  251EMI    C03 4753   2.219   4.536   1.528  0.3080  0.5768  0.3213
  251EMI    H07 4754   2.204   4.533   1.205  1.3379 -1.2257  0.3276
  251EMI    H09 4755   2.393   4.664   1.552  2.3489 -0.6561 -0.3568
  251EMI    H08 4756   2.188   4.497   1.622 -0.0931 -1.2621 -0.5147
  251EMI    C05 4757   2.038   4.409   1.409 -0.4964  0.2722  0.8513
  251EMI    H0B 4758   1.957   4.467   1.367  1.6512  1.2823 -2.2677
  251EMI    H0C 4759   2.039   4.318   1.352  3.8301  1.2327 -0.9701
  251EMI    H0D 4760   2.014   4.382   1.511  1.2543 -2.3351  0.6754
  251EMI    N00 4761   2.155   4.493   1.411  0.4150 -0.2741 -0.2914
  251EMI    C06 4762   2.404   4.719   1.277  0.2773 -0.2024 -0.4628
  251EMI    H0F 4763   2.418   4.678   1.179  2.2381 -1.3991  0.2783
  251EMI    C0N 4764   2.355   4.860   1.270  0.0647  0.4263 -0.3405
  251EMI    H0O 4765   2.425   4.929   1.225  0.7612 -0.0048  0.0542
  251EMI    H0P 4766   2.255   4.865   1.229 -0.6110 -2.2108  0.7504
  251EMI    H0Q 4767   2.350   4.894   1.373  0.2600  0.1173 -0.2268
  251EMI    N02 4768   2.315   4.623   1.352 -0.2854 -0.5482  0.0946
  251EMI    H0E 4769   2.504   4.708   1.315 -0.3934  1.3111  2.0631
  252EMI    C01 4770   2.575   2.068   1.538  0.6897 -0.1585 -0.3202
  252EMI    C04 4771   2.509   2.048   1.742  0.3503 -0.2189 -0.0371
  252EMI    C03 4772   2.642   2.019   1.738  0.1486 -0.2845  0.0981
  252EMI    H07 4773   2.573   2.062   1.431  0.2392 -1.8838 -0.2369
  252EMI    H09 4774   2.446   2.047   1.828  2.8978  1.5331  2.0572
  252EMI    H08 4775   2.697   1.989   1.825 -0.1276  0.0263  0.3820
  252EMI    C05 4776   2.810   1.988   1.550  0.1141  0.5434 -0.0969
  252EMI    H0B 4777   2.832   2.039   1.457  2.1283 -0.1550 -0.0527
  252EMI    H0C 4778   2.879   2.030   1.622 -1.4774  0.3055  1.6655
  252EMI    H0D 4779   2.821   1.882   1.533 -0.5414  0.1480  1.7016
  252EMI    N00 4780   2.679   2.022   1.608  0.0789 -0.6856  0.4215
  252EMI    C06 4781   2.329   2.114   1.572 -0.7329 -0.1317 -0.2657
  252EMI    H0F 4782   2.308   2.212   1.612  0.2860 -1.0070  2.6413
  252EMI    C0N 4783   2.309   2.079   1.424 -0.7519  0.7381  0.4827
  252EMI    H0O 4784   2.203   2.074   1.402 -0.6201 -0.8008  0.0101
  252EMI    H0P 4785   2.355   2.142   1.349 -0.6874  1.2383  0.9389
  252EMI    H0Q 4786   2.342   1.976   1.409 -4.6255 -0.6174  0.0804
  252EMI    N02 4787   2.471   2.089   1.619  0.4033  0.6923 -0.0291
  252EMI    H0E 4788   2.269   2.043   1.628 -0.8577  0.8518  0.8797
  253EMI    C01 4789   0.938   2.221   4.064 -0.0731  0.2121 -0.2355
  253EMI    C04 4790   0.774   2.089   4.009 -0.2193  0.1578 -0.3652
  253EMI    C03 4791   0.723   2.185   4.083  0.4084  0.1213 -0.0970
  253EMI    H07 4792   1.038   2.252   4.087  0.4375 -1.7194  0.3193
  253EMI    H09 4793   0.732   2.008   3.954 -0.7236 -0.0327  0.2958
  253EMI    H08 4794   0.620   2.205   4.105  0.1127  1.5363 -2.4050
  253EMI    C05 4795   0.823   2.392   4.188  0.1163 -0.5023 -0.1217
  253EMI    H0B 4796   0.749   2.416   4.263 -0.8641  0.4505 -1.3574
  253EMI    H0C 4797   0.914   2.414   4.242  0.3698  2.0839 -1.4897
  253EMI    H0D 4798   0.829   2.468   4.112  0.2461 -0.6280 -0.2356
  253EMI    N00 4799   0.828   2.275   4.107 -0.2192 -0.4142 -0.5065
  253EMI    C06 4800   1.017   2.015   3.960  0.3628  0.5846  0.2156
  253EMI    H0F 4801   1.109   2.072   3.952  1.3124 -1.1507 -2.7709
  253EMI    C0N 4802   1.032   1.894   4.052 -0.2860  0.2211 -0.7696
  253EMI    H0O 4803   0.934   1.852   4.073 -0.4660  0.8779 -0.2627
  253EMI    H0P 4804   1.095   1.823   4.001  0.8392  0.9862 -0.4757
  253EMI    H0Q 4805   1.076   1.923   4.147 -0.7012 -1.6829  0.0536
  253EMI    N02 4806   0.914   2.107   4.008  0.4872 -0.0792  0.8539
  253EMI    H0E 4807   0.982   1.991   3.861 -1.5891 -0.5057  1.1259
  254EMI    C01 4808   2.181   0.906   3.441 -1.1954  0.7260 -0.2742
  254EMI    C04 4809   2.279   0.895   3.245  1.3093  0.0085  0.6869
  254EMI    C03 4810   2.346   0.817   3.322 -0.3490 -0.4107  0.3905
  254EMI    H07 4811   2.123   0.928   3.527 -1.0612 -1.3796  0.4117
  254EMI    H09 4812   2.296   0.920   3.143 -0.0785 -0.7182  0.2471
  254EMI    H08 4813   2.436   0.760   3.311  1.8376  2.4277  1.8677
  254EMI    C05 4814   2.310   0.723   3.558  0.2500 -0.2238  0.2313
  254EMI    H0B 4815   2.279   0.759   3.655 -1.8184 -0.4315 -0.3131
  254EMI    H0C 4816   2.260   0.630   3.536 -0.9203  0.4760 -0.1597
  254EMI    H0D 4817   2.417   0.721   3.546  0.0566  0.4871 -2.4464
  254EMI    N00 4818   2.285   0.820   3.443 -0.1417  0.1045 -0.8854
  254EMI    C06 4819   2.080   1.048   3.269 -0.7347 -0.3116 -0.0064
  254EMI    H0F 4820   2.137   1.120   3.211 -0.9786 -1.0225 -1.1553
  254EMI    C0N 4821   1.971   0.972   3.182 -0.5240  0.0400  0.5085
  254EMI    H0O 4822   1.934   1.043   3.109  2.4619 -1.0376 -2.3038
  254EMI    H0P 4823   2.014   0.893   3.121  0.6678  1.1611 -0.1310
  254EMI    H0Q 4824   1.892   0.941   3.250 -1.8107  1.8247 -0.1081
  254EMI    N02 4825   2.177   0.953   3.323  0.1541 -0.0618 -0.6968
  254EMI    H0E 4826   2.041   1.103   3.353 -0.8550  1.7244 -1.3242
  255EMI    C01 4827   4.996   1.287   1.462 -0.4010 -0.1251  0.2679
  255EMI    C04 4828   4.910   1.093   1.522 -0.4241  0.1873 -0.0208
  255EMI    C03 4829   4.814   1.167   1.469  0.0463  0.4344  0.0582
  255EMI    H07 4830   5.061   1.370   1.444 -2.2490  1.7628  1.7571
  255EMI    H09 4831   4.903   0.992   1.556 -1.2374 -0.0755 -0.9282
  255EMI    H08 4832   4.710   1.150   1.452  0.2384  1.8475 -3.3334
  255EMI    C05 4833   4.800   1.401   1.364  0.0139 -0.0498 -0.2215
  255EMI    H0B 4834   4.826   1.501   1.395  0.4131  1.0152 -3.6431
  255EMI    H0C 4835   4.826   1.390   1.260  2.5112 -2.1362  0.5108
  255EMI    H0D 4836   4.694   1.390   1.382 -0.2267 -1.1801 -2.1257
  255EMI    N00 4837   4.866   1.289   1.436 -0.1299  0.0201  0.2241
  255EMI    C06 4838   5.159   1.111   1.540 -0.2344  0.3003  0.1677
  255EMI    H0F 4839   5.168   1.014   1.494 -0.6848  0.7817 -0.9944
  255EMI    C0N 4840   5.264   1.202   1.473  0.1955  0.2409  0.3576
  255EMI    H0O 4841   5.239   1.235   1.373  0.7197  2.6427  0.9663
  255EMI    H0P 4842   5.279   1.294   1.529  0.8028 -0.0974  0.7665
  255EMI    H0Q 4843   5.353   1.140   1.483 -0.1497 -0.8985 -2.6855
  255EMI    N02 4844   5.028   1.169   1.508  0.1635  0.8451 -0.4460
  255EMI    H0E 4845   5.159   1.093   1.646 -1.1568  0.4046  0.1908
  256EMI    C01 4846   4.512   1.062   0.235  0.6317 -0.4769 -1.2797
  256EMI    C04 4847   4.487   1.043   0.020  0.2573  0.6925  0.4133
  256EMI    C03 4848   4.395   0.961   0.082 -0.6770 -0.0471 -0.0677
  256EMI    H07 4849   4.571   1.082   0.321 -0.3800  0.1354 -0.7026
  256EMI    H09 4850   4.506   1.044  -0.085  2.9989 -1.4171  0.7616
  256EMI    H08 4851   4.329   0.887   0.042  0.5889 -1.4994  0.4027
  256EMI    C05 4852   4.356   0.905   0.337 -0.0311 -0.6233  0.6192
  256EMI    H0B 4853   4.337   0.974   0.418  0.0963  0.7508 -0.4785
  256EMI    H0C 4854   4.267   0.849   0.316  1.1038 -1.5804 -2.0101
  256EMI    H0D 4855   4.428   0.836   0.378  1.1379  0.6206  0.7610
  256EMI    N00 4856   4.415   0.976   0.222 -0.4866 -0.5558 -0.2499
  256EMI    C06 4857   4.666   1.203   0.106 -0.0162  0.3061  0.3711
  256EMI    H0F 4858   4.736   1.210   0.188  1.0471 -0.4743 -0.4271
  256EMI    C0N 4859   4.751   1.147  -0.005  0.3944 -0.0252  0.1108
  256EMI    H0O 4860   4.852   1.179   0.021 -0.0037  0.3051  1.3239
  256EMI    H0P 4861   4.759   1.039   0.005 -0.5363 -0.4609 -2.9512
  256EMI    H0Q 4862   4.726   1.173  -0.107 -1.7463  0.0535  0.6088
  256EMI    N02 4863   4.555   1.114   0.125 -0.1571  0.2708  0.0239
  256EMI    H0E 4864   4.627   1.296   0.069  1.9974  1.5515  1.1957
  257EMI    C01 4865   1.868   1.685   2.834  0.7067  0.4774  0.3638
  257EMI    C04 4866   1.832   1.814   2.665  0.2302 -0.5077  0.1163
  257EMI    C03 4867   1.905   1.882   2.753  0.2630 -0.2323  0.6158
  257EMI    H07 4868   1.882   1.596   2.892  1.8783  0.3269 -0.1177
  257EMI    H09 4869   1.814   1.837   2.563 -1.6426 -0.0793  0.5022
  257EMI    H08 4870   1.939   1.983   2.744 -0.8139  0.0372 -0.8472
  257EMI    C05 4871   2.024   1.832   2.965 -0.4059  0.3123 -0.3879
  257EMI    H0B 4872   2.049   1.742   3.020  1.0103  0.4385 -0.7882
  257EMI    H0C 4873   2.105   1.879   2.912  0.0206  0.3233  0.2511
  257EMI    H0D 4874   1.986   1.912   3.026  0.1148  0.4601 -0.2548
  257EMI    N00 4875   1.929   1.795   2.855 -0.3742 -0.0492  0.3153
  257EMI    C06 4876   1.685   1.599   2.675  0.5445  0.2748 -0.3374
  257EMI    H0F 4877   1.729   1.517   2.619 -0.3215 -0.9126  0.6674
  257EMI    C0N 4878   1.609   1.547   2.797  0.0216 -0.2227 -0.3174
  257EMI    H0O 4879   1.590   1.631   2.863 -1.1949  0.6560 -1.7074
  257EMI    H0P 4880   1.518   1.504   2.757 -0.4114 -0.9763  1.4079
  257EMI    H0Q 4881   1.673   1.472   2.842 -0.5871 -0.9855 -0.6966
  257EMI    N02 4882   1.792   1.697   2.725  1.0300  0.2861 -0.6353
  257EMI    H0E 4883   1.615   1.648   2.609 -0.4993 -0.4863  0.1737
  258EMI    C01 4884   2.731   0.950   4.062  0.2339 -0.2026 -0.2353
  258EMI    C04 4885   2.863   0.784   4.123 -0.3839 -0.0219 -0.1844
  258EMI    C03 4886   2.752   0.777   4.198  0.6015 -0.3796  0.4260
  258EMI    H07 4887   2.686   1.038   4.023 -1.3032 -1.0728 -0.5232
  258EMI    H09 4888   2.947   0.719   4.112 -0.7535 -0.2703 -1.7304
  258EMI    H08 4889   2.727   0.719   4.283 -0.7278  1.7264  1.5411
  258EMI    C05 4890   2.554   0.916   4.228 -0.2257  0.1987  0.3390
  258EMI    H0B 4891   2.487   0.847   4.179  0.8707 -1.4927  1.1155
  258EMI    H0C 4892   2.556   0.899   4.334  3.5491  1.2764  0.5860
  258EMI    H0D 4893   2.531   1.020   4.208  2.0814  0.8672  0.8471
  258EMI    N00 4894   2.681   0.891   4.168  0.1290  0.1514  0.1496
  258EMI    C06 4895   2.960   0.926   3.935  0.7238 -0.8474 -0.1588
  258EMI    H0F 4896   2.906   0.941   3.843  0.5127  0.8252  0.1998
  258EMI    C0N 4897   3.040   1.040   3.993  0.4017  0.3028 -0.3912
  258EMI    H0O 4898   3.081   1.007   4.087 -2.4574 -0.1400  0.7824
  258EMI    H0P 4899   3.120   1.064   3.924  1.7906 -0.2787  0.9652
  258EMI    H0Q 4900   2.980   1.126   4.019 -0.7978 -0.6191 -0.0077
  258EMI    N02 4901   2.850   0.887   4.033  0.4593 -0.5160  0.2737
  258EMI    H0E 4902   3.026   0.842   3.927  1.4041 -0.4422  0.9169
  259EMI    C01 4903   4.488   1.618   0.680  0.1313 -1.1729  0.7155
  259EMI    C04 4904   4.275   1.616   0.728  0.3006 -0.1027  0.3189
  259EMI    C03 4905   4.290   1.534   0.622  0.1686  0.1107  0.2893
  259EMI    H07 4906   4.590   1.650   0.678 -0.9152  2.7031 -0.9442
  259EMI    H09 4907   4.183   1.648   0.771 -0.5106 -1.5481 -0.2940
  259EMI    H08 4908   4.213   1.489   0.563  0.5988  1.0181 -1.0102
  259EMI    C05 4909   4.497   1.437   0.507  0.2358 -0.6373  0.1212
  259EMI    H0B 4910   4.455   1.428   0.408  0.8704 -2.3132 -0.0270
  259EMI    H0C 4911   4.602   1.463   0.503 -0.1901  1.0755 -0.9156
  259EMI    H0D 4912   4.502   1.339   0.552  2.1668 -0.7920 -0.3398
  259EMI    N00 4913   4.431   1.537   0.593  0.8572 -0.1818  0.2553
  259EMI    C06 4914   4.427   1.763   0.875  0.5582 -0.2600  0.1742
  259EMI    H0F 4915   4.531   1.788   0.863  0.7536 -0.8902  0.5309
  259EMI    C0N 4916   4.325   1.879   0.861 -0.0019 -0.4547  0.4855
  259EMI    H0O 4917   4.222   1.849   0.877 -0.1114 -2.2567 -2.8294
  259EMI    H0P 4918   4.337   1.953   0.940 -0.0776  0.4567 -0.3337
  259EMI    H0Q 4919   4.329   1.920   0.761  2.0964 -0.1915  0.6295
  259EMI    N02 4920   4.400   1.668   0.759 -0.1277 -0.2718 -0.6540
  259EMI    H0E 4921   4.399   1.720   0.970 -0.9337  2.3826  1.0523
  260EMI    C01 4922   3.913   0.034   1.401 -0.2459 -0.5606  0.1385
  260EMI    C04 4923   3.824   0.105   1.586  0.8044 -0.2886 -0.0709
  260EMI    C03 4924   3.812   0.201   1.492  0.0096 -0.7304 -0.1519
  260EMI    H07 4925   3.967  -0.025   1.330  0.2129 -0.3142  0.2771
  260EMI    H09 4926   3.788   0.098   1.686 -1.3611  0.0803 -0.7649
  260EMI    H08 4927   3.765   0.295   1.509 -1.0398 -0.9904 -1.4502
  260EMI    C05 4928   3.877   0.231   1.250 -0.1940 -0.5561 -0.3856
  260EMI    H0B 4929   3.781   0.279   1.243 -1.4386 -2.8621 -0.0593
  260EMI    H0C 4930   3.955   0.302   1.274 -1.1553  0.6040 -0.6083
  260EMI    H0D 4931   3.900   0.168   1.166  1.1227 -0.6287  0.0051
  260EMI    N00 4932   3.869   0.157   1.377  0.2557  1.1029 -0.6396
  260EMI    C06 4933   3.941  -0.120   1.598  0.0015  0.7897  0.5198
  260EMI    H0F 4934   3.948  -0.202   1.528  0.0182  0.4841  0.8801
  260EMI    C0N 4935   4.073  -0.105   1.676 -0.7359  0.0660 -1.0203
  260EMI    H0O 4936   4.061  -0.039   1.762  0.7449  0.5457 -1.1442
  260EMI    H0P 4937   4.115  -0.201   1.702 -0.5716 -0.0416 -1.6638
  260EMI    H0Q 4938   4.151  -0.076   1.607  2.2200 -1.0650  1.5776
  260EMI    N02 4939   3.893   0.002   1.526 -0.1822 -0.6390  0.1299
  260EMI    H0E 4940   3.857  -0.153   1.655 -0.1852 -1.0266 -0.7375
  261EMI    C01 4941   4.493   4.290   1.089  0.3786  0.3538 -0.5055
  261EMI    C04 4942   4.484   4.427   0.922 -0.1875 -0.4267 -0.5042
  261EMI    C03 4943   4.584   4.349   0.898  0.2175 -0.5116  0.5353
  261EMI    H07 4944   4.484   4.241   1.184 -0.1739  0.6695 -0.3911
  261EMI    H09 4945   4.456   4.505   0.854  2.2351  1.8656  0.9605
  261EMI    H08 4946   4.639   4.336   0.807 -1.9935  1.0542 -1.1164
  261EMI    C05 4947   4.678   4.144   1.001 -0.2933 -0.8189 -0.2170
  261EMI    H0B 4948   4.776   4.160   0.958 -1.2369  0.5022 -1.9567
  261EMI    H0C 4949   4.677   4.119   1.106 -1.9377 -1.7902 -0.4254
  261EMI    H0D 4950   4.623   4.062   0.957 -1.8169 -0.8836  1.6357
  261EMI    N00 4951   4.584   4.258   1.002 -0.2670  0.4821  0.2965
  261EMI    C06 4952   4.313   4.457   1.102 -0.2687 -0.2688  0.6847
  261EMI    H0F 4953   4.222   4.425   1.054  0.2453 -1.8374  0.6874
  261EMI    C0N 4954   4.291   4.424   1.252 -0.1686  0.0485  0.2924
  261EMI    H0O 4955   4.229   4.339   1.279 -1.0286  1.0474  1.5797
  261EMI    H0P 4956   4.380   4.409   1.313 -1.0515 -3.1382  0.9830
  261EMI    H0Q 4957   4.254   4.513   1.301  0.5019 -0.3227  1.5237
  261EMI    N02 4958   4.427   4.388   1.040  0.4720 -0.8551  0.1628
  261EMI    H0E 4959   4.333   4.563   1.097 -0.0519 -0.3144  0.5796
  262EMI    C01 4960   2.836   4.418   2.691 -0.3237  1.0922 -0.1449
  262EMI    C04 4961   2.840   4.285   2.512  0.7764 -0.6039 -0.0912
  262EMI    C03 4962   2.961   4.327   2.540  0.2842 -0.3068  0.3120
  262EMI    H07 4963   2.782   4.478   2.762  1.0994  0.6341  1.3818
  262EMI    H09 4964   2.808   4.218   2.435  0.7463  1.2295 -1.7392
  262EMI    H08 4965   3.049   4.301   2.485  0.8788  0.1118  1.0411
  262EMI    C05 4966   3.075   4.468   2.722 -0.2262 -0.1267  0.4864
  262EMI    H0B 4967   3.078   4.574   2.705  0.0758  0.1446  2.1319
  262EMI    H0C 4968   3.049   4.451   2.825 -0.5083 -0.7250  0.3229
  262EMI    H0D 4969   3.174   4.433   2.697  0.4891  2.1378 -0.0536
  262EMI    N00 4970   2.963   4.404   2.653 -0.4333  0.6379  0.5009
  262EMI    C06 4971   2.618   4.311   2.625  0.8326  0.1238  0.5471
  262EMI    H0F 4972   2.570   4.335   2.531  1.0329 -0.8218  0.1981
  262EMI    C0N 4973   2.579   4.174   2.665 -0.6128 -0.0804 -0.0080
  262EMI    H0O 4974   2.473   4.160   2.647 -0.3289 -1.4835 -0.7956
  262EMI    H0P 4975   2.643   4.110   2.605 -0.8651  0.0346 -0.4029
  262EMI    H0Q 4976   2.593   4.153   2.770 -0.7040 -0.0104  0.0178
  262EMI    N02 4977   2.758   4.341   2.610  0.0335 -0.1910  0.2147
  262EMI    H0E 4978   2.579   4.388   2.690  1.1478  0.5262  0.2642
  263EMI    C01 4979   4.694   4.312   1.723 -1.2304 -0.4986 -0.1926
  263EMI    C04 4980   4.747   4.299   1.935 -0.7893  0.7140 -0.0467
  263EMI    C03 4981   4.815   4.205   1.868 -0.3668 -0.5274  0.5101
  263EMI    H07 4982   4.639   4.337   1.635 -1.5242 -1.5164 -0.3110
  263EMI    H09 4983   4.742   4.329   2.038 -1.5696 -0.0196  0.1430
  263EMI    H08 4984   4.877   4.125   1.903 -0.2851  0.2958  2.3204
  263EMI    C05 4985   4.818   4.121   1.630 -0.3826 -0.8886 -0.2070
  263EMI    H0B 4986   4.754   4.034   1.633 -0.6165 -0.7709 -1.3042
  263EMI    H0C 4987   4.796   4.168   1.535 -1.5001 -1.1731 -0.0962
  263EMI    H0D 4988   4.925   4.107   1.618 -0.8579 -3.3422 -2.4358
  263EMI    N00 4989   4.787   4.219   1.733  0.1445  0.4558 -0.4064
  263EMI    C06 4990   4.560   4.457   1.872 -0.2550 -0.4093 -0.4050
  263EMI    H0F 4991   4.496   4.423   1.953  0.0459  4.4034  2.2083
  263EMI    C0N 4992   4.611   4.589   1.931 -0.6046  0.2338  0.1864
  263EMI    H0O 4993   4.528   4.650   1.963 -0.2634  0.7337  0.1248
  263EMI    H0P 4994   4.689   4.578   2.006  0.2639  0.8852 -0.6011
  263EMI    H0Q 4995   4.666   4.642   1.854  1.2371  3.0236  3.1607
  263EMI    N02 4996   4.662   4.357   1.845 -0.5355  0.6158 -0.1222
  263EMI    H0E 4997   4.503   4.486   1.785  0.4362  2.2520 -0.0462
  264EMI    C01 4998   4.672   0.612   1.549 -1.0388  0.2266  0.3077
  264EMI    C04 4999   4.600   0.448   1.427  0.5281 -0.4868 -0.3206
  264EMI    C03 5000   4.691   0.521   1.356  0.2413 -0.9289 -0.4078
  264EMI    H07 5001   4.684   0.676   1.635 -2.8983 -0.5649  1.2225
  264EMI    H09 5002   4.556   0.354   1.402  1.3789 -1.1091  0.4363
  264EMI    H08 5003   4.732   0.505   1.259 -1.4627  1.5769 -1.6529
  264EMI    C05 5004   4.844   0.711   1.396  0.4510  0.2950  0.0616
  264EMI    H0B 5005   4.913   0.660   1.330 -0.4110  0.6818 -1.1684
  264EMI    H0C 5006   4.807   0.802   1.352  0.7517 -0.3486 -1.5944
  264EMI    H0D 5007   4.901   0.730   1.486 -1.3134  1.2954  1.0154
  264EMI    N00 5008   4.734   0.623   1.435 -0.4247 -0.0770  0.8734
  264EMI    C06 5009   4.520   0.444   1.663  0.0068  0.2305 -0.0368
  264EMI    H0F 5010   4.568   0.350   1.688 -1.0578 -0.6579 -1.1693
  264EMI    C0N 5011   4.513   0.534   1.783  0.0551 -0.3231  0.0115
  264EMI    H0O 5012   4.619   0.545   1.805 -0.1262  1.9455  0.0030
  264EMI    H0P 5013   4.466   0.632   1.778  1.7463  0.7305  2.4398
  264EMI    H0Q 5014   4.459   0.482   1.862 -0.2778 -0.8047 -0.5306
  264EMI    N02 5015   4.593   0.504   1.551 -0.1356  0.4792  0.1337
  264EMI    H0E 5016   4.422   0.416   1.625  0.1207 -0.6527  0.2962
  265EMI    C01 5017   2.794   2.691   4.889  0.7135 -0.6562 -1.0271
  265EMI    C04 5018   2.826   2.874   4.999 -0.4418  0.5023  0.6387
  265EMI    C03 5019   2.745   2.901   4.900  0.4956  0.1703  0.0208
  265EMI    H07 5020   2.806   2.586   4.870  0.8460 -0.9591  0.5822
  265EMI    H09 5021   2.856   2.944   5.073 -0.8396  2.9961 -1.4215
  265EMI    H08 5022   2.702   2.996   4.877  0.7857  0.6277  1.2705
  265EMI    C05 5023   2.661   2.762   4.703 -0.2131 -0.3819 -0.2631
  265EMI    H0B 5024   2.678   2.657   4.683 -0.9651 -0.4579 -0.5456
  265EMI    H0C 5025   2.553   2.773   4.709 -0.3533 -1.7624  0.0526
  265EMI    H0D 5026   2.712   2.821   4.628  1.0722  1.4617  1.9151
  265EMI    N00 5027   2.724   2.782   4.829 -0.3980 -0.4271 -0.3407
  265EMI    C06 5028   2.925   2.656   5.094  0.7742  0.9660 -0.8490
  265EMI    H0F 5029   2.860   2.592   5.151  1.2377 -0.5024 -1.9009
  265EMI    C0N 5030   3.039   2.587   5.020  0.6673  0.3127  0.4000
  265EMI    H0O 5031   3.074   2.624   4.925 -1.4577  1.2855 -0.0665
  265EMI    H0P 5032   3.117   2.579   5.095  1.2179 -2.0974 -0.3225
  265EMI    H0Q 5033   2.998   2.489   4.998 -0.9861  1.1370 -0.3582
  265EMI    N02 5034   2.847   2.737   5.002  0.6187  0.2940  0.6973
  265EMI    H0E 5035   2.967   2.721   5.169 -1.7575  0.9781  0.6647
  266EMI    C01 5036   4.651   2.942   1.603  0.3476  0.2441 -0.0770
  266EMI    C04 5037   4.567   2.745   1.664 -0.2470  0.2245 -0.1655
  266EMI    C03 5038   4.692   2.752   1.716 -0.3005  0.0245 -0.0423
  266EMI    H07 5039   4.661   3.038   1.557 -0.6144  0.6816  0.5905
  266EMI    H09 5040   4.494   2.667   1.667  1.6592 -1.6125  1.1548
  266EMI    H08 5041   4.742   2.681   1.779 -0.0754 -0.2616 -0.5360
  266EMI    C05 5042   4.853   2.950   1.747  0.2219  0.4353 -0.4706
  266EMI    H0B 5043   4.868   3.048   1.706  0.2938  0.5266 -0.2270
  266EMI    H0C 5044   4.822   2.953   1.851 -1.8542  0.6736 -1.0533
  266EMI    H0D 5045   4.943   2.889   1.745  1.3683  1.9873  1.1478
  266EMI    N00 5046   4.741   2.881   1.681  0.0388  0.1184  0.7401
  266EMI    C06 5047   4.422   2.891   1.514  0.0534  0.5338 -0.5094
  266EMI    H0F 5048   4.339   2.848   1.569  1.6481 -0.4896  1.2436
  266EMI    C0N 5049   4.401   3.040   1.511  0.1694 -0.2611  0.4170
  266EMI    H0O 5050   4.404   3.087   1.609  0.7898  0.3042  0.1440
  266EMI    H0P 5051   4.473   3.082   1.441  0.1920 -0.1321  0.5152
  266EMI    H0Q 5052   4.303   3.062   1.470 -0.1517  0.0449  1.3306
  266EMI    N02 5053   4.548   2.859   1.585 -0.0051 -0.2619  0.0430
  266EMI    H0E 5054   4.433   2.853   1.414  0.6709  0.3649 -0.3803
  267EMI    C01 5055   0.160   0.502   3.481 -0.0838 -0.1918 -0.0201
  267EMI    C04 5056   0.168   0.696   3.593 -0.2572  0.3512 -0.7101
  267EMI    C03 5057   0.092   0.606   3.655 -0.4090 -0.5494 -0.7915
  267EMI    H07 5058   0.177   0.433   3.402 -2.3077 -0.6196 -0.1765
  267EMI    H09 5059   0.197   0.795   3.619  0.2354 -0.5007  2.3040
  267EMI    H08 5060   0.035   0.623   3.743  0.4161  1.5965 -0.6183
  267EMI    C05 5061   0.026   0.368   3.647  0.3857 -0.2827  0.3501
  267EMI    H0B 5062  -0.074   0.385   3.685 -1.3294 -0.7409 -3.4562
  267EMI    H0C 5063   0.011   0.311   3.556 -2.5991  1.3510 -0.3030
  267EMI    H0D 5064   0.083   0.310   3.718  1.9553  1.8267  0.9089
  267EMI    N00 5065   0.095   0.484   3.596  0.4076 -0.1695 -0.3049
  267EMI    C06 5066   0.291   0.698   3.377 -0.0409  0.7815  0.6131
  267EMI    H0F 5067   0.234   0.780   3.335 -1.1025 -1.1739 -2.0642
  267EMI    C0N 5068   0.423   0.743   3.434  0.2305 -0.6144 -0.6015
  267EMI    H0O 5069   0.484   0.805   3.368  1.6680 -0.8024  0.5195
  267EMI    H0P 5070   0.396   0.816   3.509  0.2889 -1.0936 -0.1083
  267EMI    H0Q 5071   0.490   0.668   3.473  0.1800 -1.3393 -1.8439
  267EMI    N02 5072   0.207   0.629   3.479  0.6229 -0.2028 -0.0437
  267EMI    H0E 5073   0.312   0.628   3.298  0.0585 -0.4026  1.6433
  268EMI    C01 5074   2.344   2.419   2.350 -0.8393 -1.0860  0.6411
  268EMI    C04 5075   2.441   2.606   2.408 -0.8382  0.3741 -0.4602
  268EMI    C03 5076   2.533   2.508   2.420 -0.4987  0.4819 -0.7620
  268EMI    H07 5077   2.268   2.352   2.315 -0.8918  0.5130 -2.6564
  268EMI    H09 5078   2.447   2.710   2.430 -2.3708  0.7658 -1.6820
  268EMI    H08 5079   2.634   2.512   2.455 -1.4007  1.1432  2.0138
  268EMI    C05 5080   2.531   2.262   2.370  0.0056  0.2470 -0.1875
  268EMI    H0B 5081   2.618   2.271   2.307 -0.4382 -0.4092 -0.9167
  268EMI    H0C 5082   2.558   2.235   2.471 -3.7881  1.5864  1.3655
  268EMI    H0D 5083   2.462   2.188   2.332  0.6592  0.2040 -1.3146
  268EMI    N00 5084   2.472   2.392   2.374 -0.1882  0.0852  0.5049
  268EMI    C06 5085   2.189   2.613   2.376 -0.4504  0.9911 -0.6520
  268EMI    H0F 5086   2.191   2.714   2.339 -0.8242  1.1985 -0.1144
  268EMI    C0N 5087   2.084   2.535   2.295 -0.6193 -0.5104 -0.0525
  268EMI    H0O 5088   2.069   2.434   2.332 -1.2130 -0.2645  0.3937
  268EMI    H0P 5089   1.985   2.577   2.304 -0.8798 -1.4129  1.8286
  268EMI    H0Q 5090   2.120   2.538   2.193  1.9147  2.3652  0.7905
  268EMI    N02 5091   2.324   2.551   2.365 -0.5833  0.1320  0.1414
  268EMI    H0E 5092   2.173   2.611   2.483 -2.2216  1.8052 -0.8616
  269EMI    C01 5093   2.742   4.623   3.588  0.3966  0.4826  0.0292
  269EMI    C04 5094   2.825   4.478   3.444 -0.2409  0.3034 -1.0503
  269EMI    C03 5095   2.735   4.408   3.518 -0.6135  0.0534 -0.1349
  269EMI    H07 5096   2.707   4.709   3.641 -0.8167  0.7315 -1.1339
  269EMI    H09 5097   2.895   4.439   3.373 -0.1905 -1.1788 -0.2055
  269EMI    H08 5098   2.702   4.306   3.524 -2.9536  0.3907 -3.8552
  269EMI    C05 5099   2.593   4.479   3.717  0.4940  0.1538 -0.0393
  269EMI    H0B 5100   2.570   4.374   3.722 -1.4863  0.6052  1.6293
  269EMI    H0C 5101   2.634   4.524   3.807  1.1032 -0.4110 -0.0215
  269EMI    H0D 5102   2.498   4.524   3.693  0.3397 -0.1354  0.0319
  269EMI    N00 5103   2.687   4.505   3.608  0.6989 -0.1262  0.0727
  269EMI    C06 5104   2.939   4.706   3.476 -0.4915  0.1924  0.5527
  269EMI    H0F 5105   3.025   4.647   3.452 -1.7256 -0.3519 -3.0520
  269EMI    C0N 5106   2.916   4.795   3.355  0.0945 -0.5549  0.3619
  269EMI    H0O 5107   2.869   4.890   3.377  2.2754 -0.0065  3.3285
  269EMI    H0P 5108   3.009   4.819   3.304  0.2464  0.8888  1.2644
  269EMI    H0Q 5109   2.855   4.757   3.274  0.6513 -0.7338  0.0211
  269EMI    N02 5110   2.837   4.608   3.499  0.0414 -0.4503  0.0200
  269EMI    H0E 5111   2.958   4.759   3.568 -0.6706  1.2007  0.0276
  270EMI    C01 5112   4.375   2.041   2.137  0.0485 -1.1210  0.4720
  270EMI    C04 5113   4.285   1.878   2.249  0.3064  0.2155  0.4286
  270EMI    C03 5114   4.376   1.935   2.326  0.1573  0.2528 -0.1462
  270EMI    H07 5115   4.385   2.121   2.067  3.0210 -0.1794  1.8212
  270EMI    H09 5116   4.211   1.802   2.258 -0.6327  0.4324 -3.6015
  270EMI    H08 5117   4.400   1.918   2.429  2.9539  1.8625 -0.4254
  270EMI    C05 5118   4.550   2.124   2.291 -0.5579 -0.2643  0.4616
  270EMI    H0B 5119   4.521   2.216   2.340 -2.0973 -0.0384 -0.8013
  270EMI    H0C 5120   4.621   2.065   2.347 -1.8287  0.4377  2.9672
  270EMI    H0D 5121   4.599   2.157   2.201  0.7996  1.8423  1.8688
  270EMI    N00 5122   4.435   2.035   2.248  0.2385 -0.1323  0.2900
  270EMI    C06 5123   4.177   1.931   2.021 -0.7642  0.3601 -0.3073
  270EMI    H0F 5124   4.203   1.866   1.939 -2.2810  0.6254 -1.0196
  270EMI    C0N 5125   4.035   1.895   2.080  0.0270 -0.2889  0.4616
  270EMI    H0O 5126   4.019   1.798   2.126 -0.1557 -2.3444 -3.4629
  270EMI    H0P 5127   4.008   1.973   2.150 -2.3418 -0.8821  0.2704
  270EMI    H0Q 5128   3.961   1.896   2.001 -0.8217 -0.3821  1.2440
  270EMI    N02 5129   4.283   1.948   2.132  0.1943  0.3807  0.8180
  270EMI    H0E 5130   4.175   2.027   1.972  0.5539 -0.2244 -1.5934
  271EMI    C01 5131   1.256   1.108   1.137 -0.8220 -0.1545  0.4815
  271EMI    C04 5132   1.335   1.234   1.287  0.2229 -0.3808 -0.4442
  271EMI    C03 5133   1.206   1.231   1.302  0.3252 -0.4662 -0.2793
  271EMI    H07 5134   1.264   1.047   1.049  0.0079  1.8997 -0.9343
  271EMI    H09 5135   1.409   1.285   1.345  0.8568 -0.4994 -1.1280
  271EMI    H08 5136   1.141   1.277   1.373 -1.3112 -0.4983 -1.6716
  271EMI    C05 5137   1.010   1.104   1.189 -0.3315  0.1645  0.2691
  271EMI    H0B 5138   0.957   1.158   1.112  0.8205 -1.4492 -1.7584
  271EMI    H0C 5139   1.006   0.997   1.177 -0.6057  0.4836 -3.4182
  271EMI    H0D 5140   0.964   1.124   1.285  0.0842 -0.6049  0.6463
  271EMI    N00 5141   1.150   1.152   1.202 -0.8084  0.1450  0.3202
  271EMI    C06 5142   1.498   1.161   1.105 -0.3446 -0.5394 -0.2135
  271EMI    H0F 5143   1.526   1.258   1.067 -0.3183  0.3304  1.9130
  271EMI    C0N 5144   1.612   1.089   1.180 -0.6658  0.0498  0.4077
  271EMI    H0O 5145   1.627   1.136   1.276  0.2654 -1.2996  0.9563
  271EMI    H0P 5146   1.592   0.985   1.202  0.3109 -0.1625  0.3341
  271EMI    H0Q 5147   1.704   1.099   1.123  0.8336 -1.6219  2.3741
  271EMI    N02 5148   1.367   1.172   1.172 -0.0270 -0.3580  0.4160
  271EMI    H0E 5149   1.477   1.102   1.017 -1.3439 -0.7303  0.1396
  272EMI    C01 5150   2.554   2.741   3.389 -0.1668 -0.3179  0.2084
  272EMI    C04 5151   2.651   2.627   3.235  0.5654 -0.4760  0.1530
  272EMI    C03 5152   2.746   2.684   3.308  0.3651  0.2148  0.1967
  272EMI    H07 5153   2.471   2.766   3.451 -1.4337 -1.8212 -0.8154
  272EMI    H09 5154   2.663   2.566   3.148  3.8304  0.5696 -0.2693
  272EMI    H08 5155   2.851   2.683   3.290  0.8420  0.7800  2.6467
  272EMI    C05 5156   2.748   2.835   3.514  0.0571 -0.3914 -0.4971
  272EMI    H0B 5157   2.777   2.938   3.496 -0.5694 -0.5116 -2.4500
  272EMI    H0C 5158   2.686   2.829   3.602  0.6496 -0.0206 -0.0387
  272EMI    H0D 5159   2.847   2.796   3.534  0.9352  2.0786  0.4208
  272EMI    N00 5160   2.684   2.766   3.403  0.2019  0.2640 -0.3612
  272EMI    C06 5161   2.414   2.577   3.257  0.0198 -0.6314  0.0567
  272EMI    H0F 5162   2.401   2.599   3.152  2.1542  1.8651  0.2100
  272EMI    C0N 5163   2.418   2.427   3.290 -0.0553  0.1082  0.1758
  272EMI    H0O 5164   2.327   2.379   3.257  0.0354  0.4408 -0.5825
  272EMI    H0P 5165   2.510   2.375   3.268  0.0023  0.1270  0.3734
  272EMI    H0Q 5166   2.417   2.430   3.398 -0.3117 -0.9730  0.2124
  272EMI    N02 5167   2.532   2.651   3.297 -1.1757 -0.1060  0.3906
  272EMI    H0E 5168   2.336   2.612   3.323  0.0795 -1.2435  0.4525
  273EMI    C01 5169   3.832   2.779   2.531 -0.1249  0.9058  0.2164
  273EMI    C04 5170   3.718   2.638   2.655 -0.6085  0.4175  0.1926
  273EMI    C03 5171   3.711   2.759   2.710 -0.1023  0.6501 -0.4613
  273EMI    H07 5172   3.899   2.796   2.450  1.0172 -1.1737  0.6617
  273EMI    H09 5173   3.669   2.547   2.684 -1.0121  0.6685  0.3051
  273EMI    H08 5174   3.659   2.795   2.796  0.6477  2.7472 -0.8278
  273EMI    C05 5175   3.807   2.988   2.654 -0.3028 -0.3324 -0.4405
  273EMI    H0B 5176   3.908   3.003   2.620 -0.0330 -2.0652 -0.4805
  273EMI    H0C 5177   3.730   3.046   2.604  0.4309  1.1713  0.0892
  273EMI    H0D 5178   3.807   3.013   2.759  2.9037  3.4737 -1.1058
  273EMI    N00 5179   3.793   2.846   2.634 -0.5910  0.1652 -0.5051
  273EMI    C06 5180   3.852   2.542   2.456  0.5115 -1.1177  1.0441
  273EMI    H0F 5181   3.936   2.492   2.502  1.9027  1.2636  1.2728
  273EMI    C0N 5182   3.739   2.452   2.425  0.3067  0.3787  0.0562
  273EMI    H0O 5183   3.708   2.411   2.521  0.1389  1.4753  0.4777
  273EMI    H0P 5184   3.658   2.511   2.386  0.6929  1.3663  0.6898
  273EMI    H0Q 5185   3.771   2.365   2.368  0.0045 -0.7806  1.5795
  273EMI    N02 5186   3.810   2.652   2.551 -0.2858  0.2417  1.3948
  273EMI    H0E 5187   3.880   2.590   2.363 -0.4371  0.9155  1.7477
  274EMI    C01 5188   0.596   3.318   1.298  0.7842 -0.9103  0.0091
  274EMI    C04 5189   0.417   3.399   1.208 -0.2626 -0.2541  0.2292
  274EMI    C03 5190   0.397   3.269   1.241 -0.5533  0.2486 -0.2334
  274EMI    H07 5191   0.693   3.305   1.340  0.4084  0.0592  1.2178
  274EMI    H09 5192   0.347   3.466   1.161 -0.3340  0.0726  0.7999
  274EMI    H08 5193   0.311   3.211   1.216 -0.0321  0.0839 -1.7168
  274EMI    C05 5194   0.539   3.076   1.337  0.2211 -0.2280 -0.6212
  274EMI    H0B 5195   0.513   3.009   1.256 -0.5138 -1.1795  0.3795
  274EMI    H0C 5196   0.641   3.065   1.369 -0.1066  0.2391  0.6330
  274EMI    H0D 5197   0.474   3.053   1.419 -0.1980  1.4759 -0.4421
  274EMI    N00 5198   0.513   3.213   1.293 -0.7777  0.3817 -0.1123
  274EMI    C06 5199   0.619   3.564   1.218 -0.9175  0.0064 -0.1940
  274EMI    H0F 5200   0.670   3.556   1.122 -0.1798 -3.5593  0.3674
  274EMI    C0N 5201   0.524   3.679   1.229 -0.0447  0.4581 -0.2618
  274EMI    H0O 5202   0.458   3.661   1.313 -2.6575 -0.6446 -2.4104
  274EMI    H0P 5203   0.587   3.763   1.257 -0.2085  0.2113  0.8986
  274EMI    H0Q 5204   0.470   3.688   1.136 -2.0693 -0.0040  0.8341
  274EMI    N02 5205   0.547   3.431   1.247 -0.6469  0.5331 -0.1131
  274EMI    H0E 5206   0.698   3.573   1.291  0.7950  1.0142 -2.0404
  275EMI    C01 5207   4.685   2.990   2.191  0.3523 -0.3500 -0.2468
  275EMI    C04 5208   4.699   2.788   2.110 -0.2172 -0.6287  0.1290
  275EMI    C03 5209   4.601   2.849   2.050  0.1536  0.0407 -0.0522
  275EMI    H07 5210   4.691   3.084   2.241  0.0139 -1.0722  1.2079
  275EMI    H09 5211   4.747   2.694   2.094  1.5634  0.2843 -0.2325
  275EMI    H08 5212   4.519   2.820   1.987 -0.4778 -0.6967  1.0749
  275EMI    C05 5213   4.470   3.064   2.086  0.0875  0.4686 -0.0122
  275EMI    H0B 5214   4.380   3.018   2.122  0.7751 -0.3497  0.7158
  275EMI    H0C 5215   4.490   3.146   2.152  1.8846 -1.3030  1.8007
  275EMI    H0D 5216   4.462   3.079   1.979  0.4637 -1.9023 -0.4303
  275EMI    N00 5217   4.584   2.968   2.113  0.2682  0.0867 -0.5491
  275EMI    C06 5218   4.899   2.873   2.241 -0.4789 -0.1772 -0.0769
  275EMI    H0F 5219   4.975   2.861   2.165 -0.1631  0.4007  0.1465
  275EMI    C0N 5220   4.935   2.979   2.347  0.1145  0.1818  0.3045
  275EMI    H0O 5221   4.840   3.000   2.395 -2.0673 -0.5993 -3.2851
  275EMI    H0P 5222   5.016   2.960   2.415 -1.2017  0.9935  2.1841
  275EMI    H0Q 5223   4.965   3.074   2.303 -1.2867  0.2517 -0.5865
  275EMI    N02 5224   4.765   2.889   2.177 -0.5160  0.0297  0.4753
  275EMI    H0E 5225   4.893   2.779   2.293  1.9338  0.4468  1.4636
  276EMI    C01 5226   2.968   2.346   1.111 -0.2962  0.2674 -0.0916
  276EMI    C04 5227   2.802   2.386   0.978  0.2049  0.8515 -1.2480
  276EMI    C03 5228   2.804   2.253   1.010 -0.2297  0.5202 -0.3530
  276EMI    H07 5229   3.044   2.361   1.185 -1.3402 -1.9720  1.5541
  276EMI    H09 5230   2.730   2.443   0.924  0.7025  1.2696 -1.4783
  276EMI    H08 5231   2.732   2.175   0.994  2.1689 -2.0625  0.5821
  276EMI    C05 5232   2.974   2.103   1.132 -0.4671 -0.4146 -0.4105
  276EMI    H0B 5233   2.967   2.087   1.238  1.0114 -3.5173 -0.6650
  276EMI    H0C 5234   2.945   2.019   1.071  0.9612 -1.6494  0.5354
  276EMI    H0D 5235   3.082   2.111   1.129 -0.4118 -0.7437  0.4637
  276EMI    N00 5236   2.923   2.228   1.079  0.5761 -0.2299 -0.0624
  276EMI    C06 5237   2.929   2.588   1.037 -0.2195 -0.2418 -0.1203
  276EMI    H0F 5238   2.918   2.617   0.934  0.2911  1.5230  0.2990
  276EMI    C0N 5239   2.845   2.664   1.131 -0.6243 -0.2362 -0.3764
  276EMI    H0O 5240   2.743   2.629   1.122 -0.7678  0.0451  0.1039
  276EMI    H0P 5241   2.893   2.650   1.227  3.1481  0.7118 -1.9432
  276EMI    H0Q 5242   2.851   2.772   1.115 -3.3960 -0.0915 -0.8385
  276EMI    N02 5243   2.906   2.445   1.045  0.0015  0.1269 -0.6269
  276EMI    H0E 5244   3.029   2.617   1.064 -0.5289  1.2515 -0.4905
  277EMI    C01 5245   0.044   0.059   3.305 -0.3438  0.4726 -0.3547
  277EMI    C04 5246   0.032   0.062   3.088 -0.0451  0.3809  0.6677
  277EMI    C03 5247  -0.032  -0.044   3.135 -0.5676  0.4021  0.3941
  277EMI    H07 5248   0.067   0.089   3.405  1.6933  1.7332 -1.1465
  277EMI    H09 5249   0.063   0.085   2.989 -1.2984  2.6890  0.7338
  277EMI    H08 5250  -0.071  -0.122   3.073  1.0181 -0.1291  0.0115
  277EMI    C05 5251  -0.126  -0.126   3.355 -1.0552  0.0683  0.2783
  277EMI    H0B 5252  -0.227  -0.122   3.317 -0.4068  1.8965 -1.4689
  277EMI    H0C 5253  -0.088  -0.225   3.373 -1.4963 -0.7410 -2.7091
  277EMI    H0D 5254  -0.133  -0.081   3.453 -1.6517  0.3131  0.1255
  277EMI    N00 5255  -0.039  -0.039   3.271  0.7141  0.1928  0.6522
  277EMI    C06 5256   0.167   0.245   3.196  0.0557  0.5121  0.6929
  277EMI    H0F 5257   0.243   0.234   3.120 -0.9975  1.5177 -0.5408
  277EMI    C0N 5258   0.097   0.368   3.171  0.2066 -0.2898  0.1064
  277EMI    H0O 5259   0.162   0.453   3.152  0.0546 -0.6616 -2.4278
  277EMI    H0P 5260   0.030   0.366   3.085 -1.7982  0.1018  1.5763
  277EMI    H0Q 5261   0.026   0.393   3.249 -0.7133  0.2916 -0.8838
  277EMI    N02 5262   0.079   0.130   3.198  0.3666 -0.0579  0.5168
  277EMI    H0E 5263   0.213   0.256   3.293  0.2944  2.7154  0.3684
  278EMI    C01 5264   0.236   2.637   4.032  0.1316  0.1751 -0.6210
  278EMI    C04 5265   0.436   2.705   3.998 -0.0036  0.1846  0.0551
  278EMI    C03 5266   0.381   2.685   3.876  0.4712 -0.1665  0.2341
  278EMI    H07 5267   0.156   2.602   4.093 -0.5488  1.7411 -0.5740
  278EMI    H09 5268   0.537   2.727   4.025  0.7813 -1.6486 -1.1697
  278EMI    H08 5269   0.419   2.690   3.776  1.6067 -0.6934  0.6169
  278EMI    C05 5270   0.162   2.592   3.798 -0.0182  0.3119  0.4916
  278EMI    H0B 5271   0.146   2.659   3.715 -2.3974  1.1637  1.5234
  278EMI    H0C 5272   0.191   2.493   3.764  2.5505  0.4481  2.0340
  278EMI    H0D 5273   0.066   2.569   3.842 -0.4890 -1.4327 -1.2661
  278EMI    N00 5274   0.252   2.644   3.902 -0.0993  0.0577 -0.0622
  278EMI    C06 5275   0.369   2.652   4.242  0.0542 -0.8863  0.1373
  278EMI    H0F 5276   0.286   2.587   4.265  1.2503 -1.9753  1.5923
  278EMI    C0N 5277   0.470   2.555   4.284  0.4327  0.4802 -0.2531
  278EMI    H0O 5278   0.502   2.574   4.386 -0.6490  1.2871 -0.0428
  278EMI    H0P 5279   0.433   2.454   4.267  0.6682  0.5364 -1.1490
  278EMI    H0Q 5280   0.558   2.570   4.222  1.1577 -2.2175 -0.0205
  278EMI    N02 5281   0.346   2.673   4.094  0.1477  0.1668 -0.2574
  278EMI    H0E 5282   0.357   2.745   4.295 -0.9966  0.2624 -1.9964
  279EMI    C01 5283   4.249   3.987   0.618  0.7112  0.9134 -0.0989
  279EMI    C04 5284   4.125   4.047   0.453 -0.2962  0.1054  0.6065
  279EMI    C03 5285   4.179   4.157   0.510  0.2091  0.7253 -0.1993
  279EMI    H07 5286   4.304   3.919   0.680 -0.2809 -1.2356 -1.4451
  279EMI    H09 5287   4.059   4.034   0.370  0.2451  0.6843  0.0805
  279EMI    H08 5288   4.169   4.260   0.485  3.2458  1.3073  0.5857
  279EMI    C05 5289   4.334   4.199   0.705  0.2304  0.1682 -0.6960
  279EMI    H0B 5290   4.413   4.242   0.646  0.5490  1.8075  0.8683
  279EMI    H0C 5291   4.272   4.281   0.738  0.2060  0.1245 -0.6329
  279EMI    H0D 5292   4.369   4.151   0.795 -1.1869  0.3168 -0.0337
  279EMI    N00 5293   4.254   4.118   0.614 -1.0576 -0.2045  0.2568
  279EMI    C06 5294   4.164   3.798   0.476  0.4390 -0.8665  1.0926
  279EMI    H0F 5295   4.067   3.760   0.503 -0.0571  0.6271  1.4627
  279EMI    C0N 5296   4.212   3.776   0.338  0.0422 -0.0905  0.0707
  279EMI    H0O 5297   4.233   3.670   0.330 -1.5630 -0.3566 -1.0531
  279EMI    H0P 5298   4.146   3.810   0.260  1.0178  0.1041 -0.6904
  279EMI    H0Q 5299   4.301   3.838   0.331  0.8481 -1.2662 -0.2725
  279EMI    N02 5300   4.172   3.941   0.521 -0.9342 -0.2758 -0.8167
  279EMI    H0E 5301   4.228   3.736   0.538 -1.1581 -1.8346  1.8335
  280EMI    C01 5302   3.937   3.852   4.917  0.2477  0.1288 -0.4987
  280EMI    C04 5303   3.899   3.960   5.101 -0.7807 -0.0854 -0.8490
  280EMI    C03 5304   4.027   3.945   5.076 -0.4735  0.1172 -0.1328
  280EMI    H07 5305   3.904   3.800   4.829 -1.1378 -1.0569  0.6617
  280EMI    H09 5306   3.850   4.006   5.183  1.4358 -0.9127  1.0460
  280EMI    H08 5307   4.103   3.984   5.140  0.9964  0.2597 -1.9055
  280EMI    C05 5308   4.182   3.840   4.902 -0.6636  0.0410 -0.1974
  280EMI    H0B 5309   4.255   3.907   4.946 -0.5661 -1.4479  2.1135
  280EMI    H0C 5310   4.209   3.737   4.919  1.9908  0.5247 -0.9622
  280EMI    H0D 5311   4.189   3.858   4.796 -1.1570  0.9814 -0.0789
  280EMI    N00 5312   4.052   3.878   4.961 -0.9664  0.4936 -0.0570
  280EMI    C06 5313   3.690   3.884   4.980 -0.2101 -0.2467  0.0372
  280EMI    H0F 5314   3.668   3.877   4.874 -2.1657  0.4308  0.3607
  280EMI    C0N 5315   3.649   3.762   5.056  0.2228 -0.5539  0.2272
  280EMI    H0O 5316   3.646   3.765   5.164 -0.9342 -2.2724  0.2802
  280EMI    H0P 5317   3.544   3.749   5.033  0.2395  0.6419 -0.6127
  280EMI    H0Q 5318   3.709   3.683   5.012 -0.4500 -0.5394 -0.7352
  280EMI    N02 5319   3.838   3.898   5.000 -0.2024  0.2168  0.6805
  280EMI    H0E 5320   3.643   3.979   4.997  0.7590  1.3756 -4.7393
  281EMI    C01 5321   0.476   4.206   2.239 -0.3537  0.0200  0.5436
  281EMI    C04 5322   0.483   4.379   2.104  0.3727 -0.6093  0.6766
  281EMI    C03 5323   0.414   4.285   2.039 -0.4328 -0.0463  0.0827
  281EMI    H07 5324   0.492   4.146   2.326 -0.4825 -0.8528 -0.0302
  281EMI    H09 5325   0.501   4.483   2.085 -0.5107 -0.6659 -0.5928
  281EMI    H08 5326   0.366   4.280   1.944 -0.5566  1.3033  0.0583
  281EMI    C05 5327   0.355   4.051   2.093 -0.9856  0.8308  0.1398
  281EMI    H0B 5328   0.424   3.970   2.117 -1.5240  0.1782 -0.4662
  281EMI    H0C 5329   0.271   4.039   2.160  0.8172 -0.5220  2.3271
  281EMI    H0D 5330   0.325   4.033   1.991  0.5870 -0.7780 -0.1029
  281EMI    N00 5331   0.422   4.174   2.122  1.1049  0.1771 -0.1686
  281EMI    C06 5332   0.582   4.407   2.337 -0.3332  1.1735 -0.5832
  281EMI    H0F 5333   0.582   4.330   2.412  1.0935 -0.9045 -2.6087
  281EMI    C0N 5334   0.718   4.462   2.311  0.1996 -0.9069  0.8784
  281EMI    H0O 5335   0.708   4.535   2.232  0.1877 -0.4514  1.2934
  281EMI    H0P 5336   0.761   4.509   2.399  0.3580 -1.2557  0.9886
  281EMI    H0Q 5337   0.792   4.393   2.273  0.9728  0.6396 -0.5546
  281EMI    N02 5338   0.518   4.329   2.228 -0.1086  0.3850 -0.0280
  281EMI    H0E 5339   0.506   4.473   2.377 -1.0064  0.3229 -0.4380
  282EMI    C01 5340   2.439   1.443   2.853 -0.1020  0.0024 -0.4168
  282EMI    C04 5341   2.581   1.609   2.850 -0.3425 -0.2499 -0.2299
  282EMI    C03 5342   2.602   1.531   2.742 -0.4103 -0.2628 -0.6470
  282EMI    H07 5343   2.361   1.376   2.882 -1.1327  1.2892 -0.1494
  282EMI    H09 5344   2.630   1.694   2.890 -0.5388 -1.7393  3.6157
  282EMI    H08 5345   2.664   1.547   2.657  0.3315  0.9103  0.0789
  282EMI    C05 5346   2.510   1.311   2.654 -0.1497  0.0273  0.2103
  282EMI    H0B 5347   2.606   1.263   2.647  0.0804  0.2307  1.6116
  282EMI    H0C 5348   2.425   1.254   2.689 -2.0009  2.6827  0.3586
  282EMI    H0D 5349   2.481   1.359   2.561  3.3860  1.5026 -0.2770
  282EMI    N00 5350   2.521   1.422   2.750  0.2311 -0.3031  0.0756
  282EMI    C06 5351   2.416   1.614   3.044  0.7739 -0.1085 -0.3633
  282EMI    H0F 5352   2.489   1.597   3.122 -0.1191  0.0236  0.5232
  282EMI    C0N 5353   2.377   1.757   3.013  0.5188 -0.4151  0.1496
  282EMI    H0O 5354   2.309   1.804   3.083  0.1266  0.3859 -0.7595
  282EMI    H0P 5355   2.457   1.830   3.013  0.2306 -0.0947  0.6971
  282EMI    H0Q 5356   2.335   1.754   2.913  0.0328  2.0305  0.2330
  282EMI    N02 5357   2.479   1.551   2.924  0.1419  0.2926 -0.1882
  282EMI    H0E 5358   2.326   1.561   3.073  0.8576  0.1268  0.3488
  283EMI    C01 5359   2.305   4.030   1.016 -0.2454  0.1445 -0.3816
  283EMI    C04 5360   2.496   4.077   0.928  0.2431  0.8985  0.4688
  283EMI    C03 5361   2.456   3.955   0.892 -0.2739 -0.3188 -0.3787
  283EMI    H07 5362   2.221   4.038   1.082 -0.1695  2.9640 -0.4905
  283EMI    H09 5363   2.578   4.139   0.903  0.3184  0.8935  0.6984
  283EMI    H08 5364   2.504   3.877   0.838  2.9292  0.7033  0.7614
  283EMI    C05 5365   2.262   3.795   0.934  0.1733 -0.3702  0.3285
  283EMI    H0B 5366   2.178   3.803   1.001  1.4906 -2.6491  2.4212
  283EMI    H0C 5367   2.231   3.787   0.831  1.9664  0.1196 -0.2838
  283EMI    H0D 5368   2.325   3.711   0.959 -1.0681 -1.6753 -0.7169
  283EMI    N00 5369   2.338   3.923   0.948  0.4183 -0.0862 -0.1023
  283EMI    C06 5370   2.425   4.229   1.125  0.0795 -0.4348 -0.7422
  283EMI    H0F 5371   2.528   4.245   1.152 -0.8336  1.4732  2.0889
  283EMI    C0N 5372   2.378   4.367   1.082  0.1433  1.0030 -0.0425
  283EMI    H0O 5373   2.429   4.439   1.146  0.8018 -0.6035  1.3429
  283EMI    H0P 5374   2.419   4.379   0.982  0.1752 -2.4508 -0.5582
  283EMI    H0Q 5375   2.271   4.380   1.084  0.0542  0.2972 -0.0819
  283EMI    N02 5376   2.407   4.118   1.023  0.3335  0.0510 -0.0898
  283EMI    H0E 5377   2.380   4.191   1.215  1.1330  1.2275  0.5523
  284EMI    C01 5378   1.389   2.286   0.424 -0.2656 -0.5558 -0.1962
  284EMI    C04 5379   1.223   2.230   0.296  0.6064  0.6559 -0.3967
  284EMI    C03 5380   1.312   2.288   0.220 -0.2808  0.1352  0.7316
  284EMI    H07 5381   1.447   2.295   0.513 -2.1132 -0.5426  1.0498
  284EMI    H09 5382   1.134   2.182   0.261  0.0398  0.3154  1.4124
  284EMI    H08 5383   1.315   2.310   0.115 -0.8100  1.5934  0.9972
  284EMI    C05 5384   1.545   2.390   0.255  0.7843  0.1059  0.0910
  284EMI    H0B 5385   1.516   2.464   0.181  0.0665  1.9874  2.1356
  284EMI    H0C 5386   1.595   2.438   0.338  2.0145 -1.8921  0.5662
  284EMI    H0D 5387   1.604   2.314   0.206 -2.2486 -1.5902 -1.2051
  284EMI    N00 5388   1.419   2.329   0.300  0.0282  0.1763  0.2992
  284EMI    C06 5389   1.195   2.186   0.539  0.3393  0.2168  0.9029
  284EMI    H0F 5390   1.158   2.090   0.507  3.9109 -0.9334 -0.3381
  284EMI    C0N 5391   1.283   2.147   0.656  0.9982 -0.0593  0.0718
  284EMI    H0O 5392   1.336   2.226   0.709  2.1599 -1.4139  0.9924
  284EMI    H0P 5393   1.230   2.081   0.723  1.0486  0.0113  0.1825
  284EMI    H0Q 5394   1.358   2.082   0.615  1.2180  0.4411 -0.3342
  284EMI    N02 5395   1.269   2.224   0.423 -0.2643 -0.3539 -0.0828
  284EMI    H0E 5396   1.112   2.252   0.559  1.5088  1.9095  0.3834
  285EMI    C01 5397   1.611   4.197   1.815  0.2014 -0.1909  0.7856
  285EMI    C04 5398   1.568   4.124   2.018 -0.1817  0.2010 -0.3680
  285EMI    C03 5399   1.667   4.052   1.966  0.6608  0.8912 -0.0641
  285EMI    H07 5400   1.622   4.263   1.731 -0.8328 -1.2722 -0.2274
  285EMI    H09 5401   1.514   4.116   2.110  0.3393 -0.8103 -0.1290
  285EMI    H08 5402   1.727   3.972   2.005  0.9462  0.6396 -0.9967
  285EMI    C05 5403   1.794   4.045   1.749 -0.0928 -0.2262 -0.0874
  285EMI    H0B 5404   1.740   3.996   1.670  2.4844 -0.0757 -2.0634
  285EMI    H0C 5405   1.845   4.133   1.711 -1.7673  0.4774 -0.8323
  285EMI    H0D 5406   1.863   3.976   1.794 -0.2930 -0.7761 -0.6229
  285EMI    N00 5407   1.697   4.099   1.841  0.8652  0.5002 -0.2059
  285EMI    C06 5408   1.418   4.312   1.927 -0.4545 -0.7728  0.7406
  285EMI    H0F 5409   1.473   4.393   1.973 -0.0470 -1.8830  2.3018
  285EMI    C0N 5410   1.350   4.341   1.788 -0.5200 -0.2017 -0.5177
  285EMI    H0O 5411   1.415   4.400   1.724 -0.0247 -1.1457 -0.9066
  285EMI    H0P 5412   1.308   4.255   1.737 -0.1140  0.3016 -1.7569
  285EMI    H0Q 5413   1.256   4.394   1.803  0.5595  1.1167  1.9800
  285EMI    N02 5414   1.533   4.221   1.922 -0.4270  0.4270 -0.9545
  285EMI    H0E 5415   1.343   4.284   1.999 -0.5235 -1.2698  0.4773
  286EMI    C01 5416   4.957   2.709   0.068 -0.2046  0.2120  0.2007
  286EMI    C04 5417   5.140   2.602   0.094  0.6972 -0.0434  0.6555
  286EMI    C03 5418   5.115   2.611  -0.039 -0.1264 -0.1576 -0.6835
  286EMI    H07 5419   4.860   2.752   0.085 -0.6709 -1.2175  1.3299
  286EMI    H09 5420   5.221   2.559   0.150  0.7852  2.5534  2.7148
  286EMI    H08 5421   5.166   2.558  -0.116 -0.9687  0.8620 -1.9736
  286EMI    C05 5422   4.924   2.688  -0.176 -0.3776 -0.2415 -0.6997
  286EMI    H0B 5423   4.982   2.649  -0.258 -1.0480 -1.7788 -0.4868
  286EMI    H0C 5424   4.829   2.639  -0.160  0.2109 -0.9544  0.9055
  286EMI    H0D 5425   4.922   2.796  -0.181  0.8927 -0.0224  1.7850
  286EMI    N00 5426   5.001   2.677  -0.052  1.0843 -0.2988  0.2947
  286EMI    C06 5427   5.022   2.708   0.307 -0.0946  1.1545  0.0765
  286EMI    H0F 5428   5.125   2.714   0.338  1.0968 -1.9560 -2.6513
  286EMI    C0N 5429   4.960   2.834   0.354 -0.3242 -0.6378 -0.9617
  286EMI    H0O 5430   4.855   2.834   0.328 -0.5490 -0.8848 -0.1014
  286EMI    H0P 5431   4.964   2.843   0.462 -2.1287  1.2252 -1.0099
  286EMI    H0Q 5432   5.016   2.919   0.318  2.0874 -1.9838 -0.6352
  286EMI    N02 5433   5.035   2.666   0.162 -0.2096 -0.0276 -0.0095
  286EMI    H0E 5434   4.992   2.613   0.349  1.3725 -0.5292 -2.4009
  287EMI    C01 5435   0.439   0.542   3.919 -0.7895 -0.1566  0.3122
  287EMI    C04 5436   0.494   0.393   3.767  0.4348 -0.4706 -0.1834
  287EMI    C03 5437   0.503   0.513   3.712  0.9142 -0.1344  0.0904
  287EMI    H07 5438   0.411   0.584   4.014 -2.0039 -0.4679  0.1098
  287EMI    H09 5439   0.498   0.296   3.721  1.1956  0.1414 -1.4611
  287EMI    H08 5440   0.541   0.531   3.613 -2.1075  0.1428 -1.1340
  287EMI    C05 5441   0.468   0.754   3.797 -0.3550  1.1917  0.8943
  287EMI    H0B 5442   0.501   0.783   3.699  2.8296 -0.6940  1.2663
  287EMI    H0C 5443   0.366   0.788   3.808 -1.1647  0.2113 -2.4808
  287EMI    H0D 5444   0.528   0.796   3.876 -1.9238 -1.2022  3.5833
  287EMI    N00 5445   0.477   0.608   3.812  1.0093  0.5164  0.3854
  287EMI    C06 5446   0.415   0.298   3.985 -0.0833 -0.7822  0.6251
  287EMI    H0F 5447   0.408   0.340   4.084  0.9319  0.6922  0.1039
  287EMI    C0N 5448   0.282   0.231   3.950  0.0848 -0.5449 -0.4768
  287EMI    H0O 5449   0.208   0.302   3.986  1.4753 -0.5567  2.7495
  287EMI    H0P 5450   0.264   0.200   3.847  0.5573  0.7900 -0.9824
  287EMI    H0Q 5451   0.282   0.138   4.006  2.9010  0.0424  0.6807
  287EMI    N02 5452   0.444   0.413   3.896 -0.1504 -0.2356  0.3170
  287EMI    H0E 5453   0.496   0.227   3.978 -1.4062 -2.3010  0.1424
  288EMI    C01 5454   3.487   1.265   0.973  0.7926 -0.3309 -0.2630
  288EMI    C04 5455   3.371   1.431   0.879  0.0865  0.0521  0.0645
  288EMI    C03 5456   3.499   1.425   0.833 -0.3600  0.2197 -0.1427
  288EMI    H07 5457   3.512   1.180   1.033  0.0822 -0.2766  0.1255
  288EMI    H09 5458   3.280   1.473   0.844  0.3888  0.4225 -0.2879
  288EMI    H08 5459   3.541   1.478   0.751  1.1409 -2.6117 -1.3189
  288EMI    C05 5460   3.714   1.311   0.907  0.0262 -0.6745  0.1254
  288EMI    H0B 5461   3.753   1.394   0.964 -1.1512  0.7943 -1.0730
  288EMI    H0C 5462   3.736   1.219   0.958  2.3540 -1.8078 -2.6460
  288EMI    H0D 5463   3.747   1.311   0.804  2.5450 -2.6099  0.8300
  288EMI    N00 5464   3.572   1.341   0.914 -0.4055  0.3160 -0.3518
  288EMI    C06 5465   3.251   1.271   1.037 -0.5127  0.0521  1.0710
  288EMI    H0F 5466   3.297   1.190   1.091  1.8003  0.4567 -0.1521
  288EMI    C0N 5467   3.178   1.369   1.130 -1.2492  0.4321 -0.6997
  288EMI    H0O 5468   3.252   1.421   1.189  1.4904 -0.3016 -3.2757
  288EMI    H0P 5469   3.130   1.448   1.073 -1.3752 -0.2776 -1.5927
  288EMI    H0Q 5470   3.106   1.304   1.178  0.0110 -1.5051 -1.3221
  288EMI    N02 5471   3.367   1.321   0.967  0.2514 -0.1987  0.1150
  288EMI    H0E 5472   3.182   1.224   0.968 -1.6432  1.7368  0.9905
  289EMI    C01 5473   1.119   3.965   1.523  0.2271  0.3858  1.1800
  289EMI    C04 5474   1.167   4.116   1.370  0.5399  0.7376  0.0046
  289EMI    C03 5475   1.033   4.106   1.385  0.0345  0.2622 -0.3432
  289EMI    H07 5476   1.119   3.884   1.592 -2.5834 -1.0985 -0.3548
  289EMI    H09 5477   1.222   4.185   1.310  0.5019  2.3070  1.6857
  289EMI    H08 5478   0.956   4.160   1.335  0.0571  0.6721  0.0602
  289EMI    C05 5479   0.874   3.980   1.532  0.2013  0.4430  0.3660
  289EMI    H0B 5480   0.831   3.921   1.452  2.4678 -0.4816 -0.2482
  289EMI    H0C 5481   0.877   3.925   1.625 -0.2109  0.7557  0.5669
  289EMI    H0D 5482   0.810   4.065   1.551  1.1870  1.2257  0.2223
  289EMI    N00 5483   1.010   4.020   1.483 -0.3186 -0.1853 -0.0899
  289EMI    C06 5484   1.364   3.995   1.473  0.0389  1.0075 -0.2681
  289EMI    H0F 5485   1.402   3.925   1.400 -2.2293 -0.9958  0.3499
  289EMI    C0N 5486   1.442   4.123   1.478 -0.3346 -0.0576 -0.6009
  289EMI    H0O 5487   1.446   4.163   1.378  0.3900 -1.0669 -0.9830
  289EMI    H0P 5488   1.398   4.199   1.543  0.2477 -0.9709  0.9160
  289EMI    H0Q 5489   1.532   4.097   1.532 -1.2958 -1.7721  0.2401
  289EMI    N02 5490   1.221   4.022   1.459  0.1125 -0.0788  0.2894
  289EMI    H0E 5491   1.398   3.950   1.565 -1.0471 -0.1120 -0.3981
  290EMI    C01 5492   3.450   2.083   1.537 -0.2552 -0.0250 -0.1563
  290EMI    C04 5493   3.264   2.110   1.427  0.1333 -0.4901  0.4786
  290EMI    C03 5494   3.236   2.083   1.555  0.0090  0.1383  0.9597
  290EMI    H07 5495   3.555   2.084   1.559 -0.5510 -1.0157  1.5564
  290EMI    H09 5496   3.198   2.137   1.348 -0.1676  0.6415  1.1024
  290EMI    H08 5497   3.141   2.091   1.604 -0.3151 -0.7941  0.5018
  290EMI    C05 5498   3.374   2.031   1.764 -0.1927 -0.0803 -0.5161
  290EMI    H0B 5499   3.415   2.120   1.809 -1.1150 -0.1980  0.6173
  290EMI    H0C 5500   3.287   2.008   1.824 -0.5656 -0.4232 -1.1826
  290EMI    H0D 5501   3.440   1.946   1.778  1.1145  1.0995  0.8945
  290EMI    N00 5502   3.355   2.065   1.626  0.4092 -0.4099 -0.2962
  290EMI    C06 5503   3.472   2.080   1.278  0.5976  0.8927  0.0696
  290EMI    H0F 5504   3.569   2.041   1.304 -0.3259 -0.4008  1.7922
  290EMI    C0N 5505   3.402   2.002   1.168 -0.5144  0.3096 -0.8031
  290EMI    H0O 5506   3.366   1.906   1.204 -0.8544  0.8166  0.2377
  290EMI    H0P 5507   3.319   2.055   1.123 -0.6550  0.6662 -0.1416
  290EMI    H0Q 5508   3.475   1.975   1.092  0.5182 -1.9014  0.8477
  290EMI    N02 5509   3.402   2.092   1.412 -0.0569 -0.0962 -0.0357
  290EMI    H0E 5510   3.491   2.177   1.235  1.0535  1.1796  0.8893
  291EMI    C01 5511   1.517   0.355   3.076 -0.4591 -0.4683  0.5515
  291EMI    C04 5512   1.600   0.314   3.269  0.9133  0.5014 -0.2139
  291EMI    C03 5513   1.581   0.444   3.259 -0.3595  0.0479  0.3909
  291EMI    H07 5514   1.495   0.348   2.972  0.3316  0.3816  0.3147
  291EMI    H09 5515   1.652   0.252   3.339  0.2658 -1.3192 -1.2810
  291EMI    H08 5516   1.610   0.520   3.328  1.1176 -1.9213  2.0680
  291EMI    C05 5517   1.471   0.601   3.089  0.2038  0.2162 -0.8227
  291EMI    H0B 5518   1.423   0.657   3.168 -2.2977 -1.2300 -1.2159
  291EMI    H0C 5519   1.561   0.655   3.063 -0.6658  1.6946 -0.9130
  291EMI    H0D 5520   1.413   0.588   2.999 -0.0006 -0.2545 -0.6237
  291EMI    N00 5521   1.522   0.468   3.136 -0.0964 -0.3582  0.0589
  291EMI    C06 5522   1.566   0.113   3.124  0.7696 -0.6737  0.3877
  291EMI    H0F 5523   1.521   0.100   3.027  1.1313  3.3071 -0.5008
  291EMI    C0N 5524   1.709   0.057   3.116  0.2753  0.0183 -0.4301
  291EMI    H0O 5525   1.754   0.040   3.213 -0.6401 -0.5760 -0.0943
  291EMI    H0P 5526   1.714  -0.038   3.063 -3.7645 -0.5819 -0.1041
  291EMI    H0Q 5527   1.765   0.124   3.053 -1.6277  1.1967 -0.9707
  291EMI    N02 5528   1.550   0.257   3.156  0.0495  0.0542  0.7379
  291EMI    H0E 5529   1.512   0.051   3.194 -2.5419  0.3978 -1.0312
  292EMI    C01 5530   2.551   3.113   4.639 -0.2047 -0.4065  0.4285
  292EMI    C04 5531   2.459   3.303   4.612 -0.1652 -0.2761 -0.5516
  292EMI    C03 5532   2.585   3.311   4.583 -0.8226 -0.2780  0.2129
  292EMI    H07 5533   2.562   3.008   4.656  0.5646 -0.3222  0.4909
  292EMI    H09 5534   2.390   3.384   4.620 -1.2399 -1.1686 -0.5230
  292EMI    H08 5535   2.640   3.401   4.564  0.1773 -0.5844  1.4838
  292EMI    C05 5536   2.792   3.165   4.580  0.5409 -0.2081  0.9550
  292EMI    H0B 5537   2.785   3.077   4.517  1.9804 -0.4380  1.0763
  292EMI    H0C 5538   2.835   3.252   4.533 -0.1481  0.0721  0.8388
  292EMI    H0D 5539   2.846   3.155   4.673  0.3310  0.3725  1.1379
  292EMI    N00 5540   2.648   3.195   4.595 -0.4317  0.0071 -0.2101
  292EMI    C06 5541   2.299   3.108   4.661  0.2344 -0.1987 -0.1947
  292EMI    H0F 5542   2.264   3.094   4.762 -2.3051  0.4173 -0.9029
  292EMI    C0N 5543   2.188   3.187   4.587 -0.9411 -0.3685 -0.6102
  292EMI    H0O 5544   2.096   3.138   4.617 -1.4164  0.6177 -0.4213
  292EMI    H0P 5545   2.176   3.292   4.610  0.8497 -0.3648  0.4150
  292EMI    H0Q 5546   2.186   3.165   4.481 -3.9964 -3.8143 -0.0523
  292EMI    N02 5547   2.433   3.174   4.645  0.6740  0.7948  0.4584
  292EMI    H0E 5548   2.304   3.020   4.599  1.6993  1.8435 -3.2127
  293EMI    C01 5549   4.620   1.573   3.983  0.3290 -0.2941 -0.7945
  293EMI    C04 5550   4.664   1.645   3.782  0.5544 -0.3712 -0.0295
  293EMI    C03 5551   4.556   1.572   3.768  0.5494  0.9065  0.1239
  293EMI    H07 5552   4.625   1.549   4.087  1.2156 -0.7789 -0.9365
  293EMI    H09 5553   4.721   1.697   3.708  1.2623 -0.6240  0.3309
  293EMI    H08 5554   4.493   1.539   3.689 -0.4089 -2.9473  2.2307
  293EMI    C05 5555   4.423   1.423   3.930  0.4477  0.1092 -1.1841
  293EMI    H0B 5556   4.359   1.425   3.844  1.4149  0.0920 -1.9202
  293EMI    H0C 5557   4.477   1.330   3.938  0.0198 -0.0945 -0.6534
  293EMI    H0D 5558   4.367   1.452   4.018  0.3639  0.9345 -1.4985
  293EMI    N00 5559   4.530   1.522   3.897 -0.0550  0.0533  0.5801
  293EMI    C06 5560   4.818   1.731   3.960 -1.0029 -0.4403  0.0163
  293EMI    H0F 5561   4.854   1.700   4.056 -1.5617  0.8725  0.6800
  293EMI    C0N 5562   4.941   1.699   3.870 -0.3607 -0.1821  0.0733
  293EMI    H0O 5563   5.022   1.760   3.907  2.0542 -3.7290  1.1723
  293EMI    H0P 5564   4.979   1.598   3.878  1.8355  0.5197 -0.7843
  293EMI    H0Q 5565   4.915   1.732   3.770 -0.9481 -3.1388 -0.8469
  293EMI    N02 5566   4.696   1.662   3.915  0.1056  1.0421 -0.8343
  293EMI    H0E 5567   4.798   1.836   3.943 -0.0500 -0.4026 -0.9741
  294EMI    C01 5568   1.435   0.345   3.570 -0.0145 -0.1057  0.1299
  294EMI    C04 5569   1.421   0.161   3.670 -0.2553 -0.6187 -0.3203
  294EMI    C03 5570   1.523   0.226   3.726  0.3310 -0.1764 -0.2429
  294EMI    H07 5571   1.416   0.423   3.500 -0.8341 -2.6014 -2.6614
  294EMI    H09 5572   1.388   0.061   3.687  1.1132 -1.1075 -0.4207
  294EMI    H08 5573   1.601   0.193   3.792  1.5065  1.0323 -0.9768
  294EMI    C05 5574   1.646   0.439   3.661 -0.1128  0.3634 -0.9605
  294EMI    H0B 5575   1.743   0.394   3.646  1.4030  3.0596  0.0222
  294EMI    H0C 5576   1.626   0.521   3.594  2.0587  0.8633 -1.0808
  294EMI    H0D 5577   1.645   0.488   3.758  4.9504  0.4831 -0.7108
  294EMI    N00 5578   1.536   0.338   3.653 -0.0167 -0.3686 -0.2515
  294EMI    C06 5579   1.236   0.222   3.500  0.1062 -0.8058 -0.6486
  294EMI    H0F 5580   1.205   0.319   3.461 -1.7154 -1.4671 -0.9438
  294EMI    C0N 5581   1.249   0.151   3.368 -0.3125 -0.3334  0.6270
  294EMI    H0O 5582   1.258   0.043   3.381  2.8095 -0.4594 -1.3904
  294EMI    H0P 5583   1.160   0.171   3.310 -0.5010  1.1890  1.4074
  294EMI    H0Q 5584   1.334   0.173   3.304  1.1734 -2.0612  1.8765
  294EMI    N02 5585   1.363   0.239   3.576  0.1519  0.1174  0.0010
  294EMI    H0E 5586   1.148   0.194   3.556 -0.4302 -0.0001 -1.0527
  295EMI    C01 5587   3.932   0.043   3.109  0.5482  0.4675 -0.0983
  295EMI    C04 5588   3.793   0.120   3.247  0.1848 -0.5810  0.7420
  295EMI    C03 5589   3.738   0.140   3.128  0.2784 -0.0764 -0.7185
  295EMI    H07 5590   4.029   0.009   3.079 -0.7094 -2.1303 -1.5273
  295EMI    H09 5591   3.765   0.157   3.343  1.0738  0.8330  0.4955
  295EMI    H08 5592   3.641   0.183   3.113 -0.3313  0.0394  2.7365
  295EMI    C05 5593   3.818   0.092   2.888  0.5521  0.4796 -0.0184
  295EMI    H0B 5594   3.740   0.164   2.868 -0.2662 -0.3703  0.0202
  295EMI    H0C 5595   3.921   0.111   2.861  0.0283  0.6314 -2.0695
  295EMI    H0D 5596   3.776  -0.004   2.863  2.2822 -0.6851  1.2513
  295EMI    N00 5597   3.831   0.085   3.040 -0.1347  0.4851  0.1160
  295EMI    C06 5598   3.976  -0.035   3.351  1.8311 -0.3471 -0.0275
  295EMI    H0F 5599   4.065   0.020   3.379  0.4026  1.2475  1.6112
  295EMI    C0N 5600   3.889  -0.069   3.463  0.3857 -0.2067 -0.0390
  295EMI    H0O 5601   3.890  -0.176   3.483  0.1394 -0.3307 -0.6463
  295EMI    H0P 5602   3.913  -0.020   3.556 -1.0541 -1.1511  0.8769
  295EMI    H0Q 5603   3.794  -0.016   3.453 -0.4780 -1.2241  2.1551
  295EMI    N02 5604   3.907   0.042   3.235  0.3782 -0.3578 -0.1336
  295EMI    H0E 5605   4.021  -0.127   3.317  3.0405 -0.9911  2.9846
  296EMI    C01 5606   2.571   3.059   3.009 -0.5789 -1.5029 -0.3667
  296EMI    C04 5607   2.712   3.046   3.178 -0.2678  0.5942  0.1920
  296EMI    C03 5608   2.758   2.977   3.068 -0.1680 -0.1488 -0.0303
  296EMI    H07 5609   2.488   3.077   2.944  0.6797 -0.0959 -1.6710
  296EMI    H09 5610   2.761   3.055   3.272 -0.2853 -3.8291  0.8128
  296EMI    H08 5611   2.850   2.925   3.054 -0.5287 -0.1279 -3.1793
  296EMI    C05 5612   2.639   2.872   2.871 -0.3150  0.5366 -0.0658
  296EMI    H0B 5613   2.546   2.819   2.863 -0.8370  1.3450  0.4436
  296EMI    H0C 5614   2.649   2.937   2.786  1.4350  3.0486  1.8866
  296EMI    H0D 5615   2.709   2.791   2.886  0.0832  1.0124  0.8033
  296EMI    N00 5616   2.647   2.963   2.985 -0.3740  0.0996 -0.3045
  296EMI    C06 5617   2.509   3.193   3.214  0.2515 -0.3345 -0.1487
  296EMI    H0F 5618   2.409   3.199   3.174  0.2263  0.0205 -0.0341
  296EMI    C0N 5619   2.491   3.128   3.352  0.5822  0.2680  0.1673
  296EMI    H0O 5620   2.481   3.021   3.345 -0.4455  0.4151 -1.0669
  296EMI    H0P 5621   2.577   3.156   3.412  0.6405  0.8228 -0.1692
  296EMI    H0Q 5622   2.401   3.168   3.398  1.1131  2.0395 -0.2271
  296EMI    N02 5623   2.596   3.108   3.135  0.1974 -0.0007  0.1575
  296EMI    H0E 5624   2.554   3.290   3.226  2.2269 -1.2475  0.3952
  297EMI    C01 5625   4.072   3.375   1.790  0.1797 -0.2427 -0.3027
  297EMI    C04 5626   4.072   3.191   1.662  0.1233  0.0694 -0.1614
  297EMI    C03 5627   4.100   3.297   1.586 -0.2234 -0.3823  0.5102
  297EMI    H07 5628   4.070   3.449   1.867 -1.3190  3.0731 -3.2979
  297EMI    H09 5629   4.059   3.085   1.653 -0.4474  0.0533  0.7432
  297EMI    H08 5630   4.123   3.303   1.482 -0.0058 -1.4804  0.4833
  297EMI    C05 5631   4.137   3.542   1.623 -0.6749  0.3319 -0.7014
  297EMI    H0B 5632   4.233   3.566   1.664 -0.2375 -0.2055 -1.3892
  297EMI    H0C 5633   4.158   3.532   1.517  0.0914  2.2717 -0.7628
  297EMI    H0D 5634   4.057   3.612   1.644  2.7889  3.9824  1.6455
  297EMI    N00 5635   4.094   3.412   1.664  0.0216  0.1971  0.0147
  297EMI    C06 5636   4.024   3.165   1.916 -0.2162  0.3556  0.5017
  297EMI    H0F 5637   4.006   3.232   1.998  0.9015  0.0038  1.0546
  297EMI    C0N 5638   3.902   3.084   1.890 -0.1598  0.1678  0.5609
  297EMI    H0O 5639   3.817   3.129   1.939  0.8981  1.3831  1.3676
  297EMI    H0P 5640   3.887   3.070   1.784 -0.3331  1.1085  0.4505
  297EMI    H0Q 5641   3.922   2.989   1.939  0.3100 -0.3618 -0.6084
  297EMI    N02 5642   4.068   3.244   1.796  0.6002  0.2634 -0.2263
  297EMI    H0E 5643   4.100   3.090   1.932 -0.2902 -0.0159 -0.7550
  298EMI    C01 5644   1.618   0.579   1.794  0.0181  0.1378 -0.1979
  298EMI    C04 5645   1.781   0.505   1.673  0.2944 -0.1504  0.1777
  298EMI    C03 5646   1.669   0.444   1.633  0.1870 -0.0780 -0.5162
  298EMI    H07 5647   1.563   0.626   1.873 -1.7640  0.6109 -1.6589
  298EMI    H09 5648   1.878   0.505   1.627  0.4667 -0.5860  0.5338
  298EMI    H08 5649   1.646   0.379   1.551 -0.7733  0.5580 -0.7671
  298EMI    C05 5650   1.430   0.449   1.709 -0.2051  0.6614 -0.0864
  298EMI    H0B 5651   1.372   0.523   1.762 -0.7379 -0.9607  1.6903
  298EMI    H0C 5652   1.396   0.436   1.607  1.0966 -1.5827 -0.3111
  298EMI    H0D 5653   1.425   0.351   1.754  0.3723  0.1012 -1.2026
  298EMI    N00 5654   1.571   0.489   1.716  0.6991 -0.0423 -0.6827
  298EMI    C06 5655   1.839   0.683   1.851  0.2015 -0.1727 -0.6819
  298EMI    H0F 5656   1.791   0.679   1.948 -5.3410 -1.8767 -3.1451
  298EMI    C0N 5657   1.984   0.632   1.860  0.1368  0.1546 -0.7097
  298EMI    H0O 5658   2.035   0.683   1.941 -0.0735  1.3985 -1.3342
  298EMI    H0P 5659   1.984   0.525   1.879  0.7074  0.0218 -1.4291
  298EMI    H0Q 5660   2.043   0.638   1.769 -1.6134 -0.1789 -1.9352
  298EMI    N02 5661   1.748   0.598   1.773  0.3292  1.3304  0.1784
  298EMI    H0E 5662   1.830   0.780   1.804 -0.5642 -0.5713 -1.3773
  299EMI    C01 5663   2.096   1.586   2.272 -0.7322  0.4701 -0.5283
  299EMI    C04 5664   2.242   1.569   2.107 -0.4866  0.2959  0.3267
  299EMI    C03 5665   2.213   1.443   2.149 -0.2434 -0.3626  0.1199
  299EMI    H07 5666   2.038   1.634   2.348  0.2154  1.2814 -0.3011
  299EMI    H09 5667   2.319   1.603   2.042 -1.0271  1.7317  0.3921
  299EMI    H08 5668   2.250   1.348   2.119 -2.5181 -1.3904  0.3911
  299EMI    C05 5669   2.064   1.343   2.326  0.3980  0.6671  0.3507
  299EMI    H0B 5670   2.032   1.373   2.425 -2.6012 -0.8738 -0.0384
  299EMI    H0C 5671   1.981   1.290   2.281  1.4209 -0.3000 -0.4768
  299EMI    H0D 5672   2.144   1.271   2.330  0.1380  0.3669  0.1870
  299EMI    N00 5673   2.116   1.455   2.250  0.7064  0.4369 -0.3132
  299EMI    C06 5674   2.181   1.805   2.188  0.5242 -0.3605  0.5380
  299EMI    H0F 5675   2.152   1.815   2.292 -1.1972  1.7103 -0.0870
  299EMI    C0N 5676   2.314   1.863   2.151 -0.0290  0.8652 -0.1462
  299EMI    H0O 5677   2.339   1.875   2.047  1.0387 -0.7277 -0.1150
  299EMI    H0P 5678   2.335   1.958   2.199  0.8140  0.8739 -0.5205
  299EMI    H0Q 5679   2.386   1.792   2.190 -0.7732  0.2996  0.2227
  299EMI    N02 5680   2.167   1.656   2.181  0.2586  0.2399  0.4993
  299EMI    H0E 5681   2.098   1.856   2.142 -0.4493 -0.5532  2.0202
  300EMI    C01 5682   2.151   1.928   1.038  0.0789 -0.0977  0.0914
  300EMI    C04 5683   2.325   1.843   1.134  0.0186 -0.5664  0.3717
  300EMI    C03 5684   2.361   1.950   1.063 -0.0561  0.3232 -0.7210
  300EMI    H07 5685   2.058   1.920   0.986  0.3817  1.2096 -0.6959
  300EMI    H09 5686   2.390   1.775   1.183  0.0287  0.7692  2.3267
  300EMI    H08 5687   2.464   1.975   1.048  0.8480 -0.8568  2.6031
  300EMI    C05 5688   2.256   2.118   0.912 -0.4106  0.0449  0.2446
  300EMI    H0B 5689   2.211   2.084   0.820  0.1914 -1.6324  0.5424
  300EMI    H0C 5690   2.238   2.210   0.967  1.7115  0.5176  0.2460
  300EMI    H0D 5691   2.356   2.130   0.874 -1.1137 -1.6979 -2.4163
  300EMI    N00 5692   2.255   2.004   1.005 -0.1685 -0.1563  0.2102
  300EMI    C06 5693   2.089   1.749   1.198  0.2840 -0.3638  0.7182
  300EMI    H0F 5694   2.115   1.645   1.185  1.9744  0.1640 -0.5938
  300EMI    C0N 5695   2.081   1.782   1.345  0.3568 -0.1759  0.2970
  300EMI    H0O 5696   2.005   1.850   1.379 -0.9356 -0.8004 -1.2272
  300EMI    H0P 5697   2.067   1.692   1.404 -0.0169 -0.0098  0.4640
  300EMI    H0Q 5698   2.173   1.816   1.391  0.2200 -1.6841  1.7745
  300EMI    N02 5699   2.185   1.838   1.131 -0.0360 -0.0596 -0.0898
  300EMI    H0E 5700   1.989   1.756   1.157  0.5914  1.3921  0.1460
  301EMI    C01 5701   0.198   3.729   4.344 -0.2574  0.6048 -0.2982
  301EMI    C04 5702  -0.018   3.767   4.317 -0.1268  0.1667 -0.5198
  301EMI    C03 5703   0.043   3.776   4.201 -0.0720  0.3709  0.4073
  301EMI    H07 5704   0.290   3.719   4.397 -0.8629  2.1060  1.1190
  301EMI    H09 5705  -0.117   3.779   4.354 -0.1372  2.3429 -1.1256
  301EMI    H08 5706  -0.008   3.793   4.109 -0.0104 -0.5162  0.2089
  301EMI    C05 5707   0.286   3.757   4.116  0.7649  0.1013 -0.2010
  301EMI    H0B 5708   0.261   3.836   4.047 -1.0382 -0.5761 -0.3861
  301EMI    H0C 5709   0.370   3.787   4.177  1.0966 -0.9404 -0.1259
  301EMI    H0D 5710   0.314   3.664   4.068  1.0221  0.1173 -0.0811
  301EMI    N00 5711   0.180   3.755   4.217 -0.7253 -0.7011 -0.3551
  301EMI    C06 5712   0.055   3.701   4.550  0.6351 -0.4376  0.5579
  301EMI    H0F 5713  -0.029   3.760   4.582  0.0060  0.6981 -2.7764
  301EMI    C0N 5714   0.024   3.553   4.578 -0.9278 -0.5140  0.6662
  301EMI    H0O 5715   0.002   3.543   4.684  1.3398  0.7928  1.3270
  301EMI    H0P 5716  -0.066   3.525   4.525 -0.9600 -0.2883  0.6026
  301EMI    H0Q 5717   0.108   3.487   4.556 -0.4620 -0.8831  3.2117
  301EMI    N02 5718   0.079   3.726   4.406  0.3968  0.0844 -0.2852
  301EMI    H0E 5719   0.139   3.745   4.601  0.3421  0.8475 -0.0272
  302EMI    C01 5720   4.669   1.290   1.876  0.3872 -0.1273  0.5790
  302EMI    C04 5721   4.549   1.115   1.918 -0.2542 -0.1065 -0.8065
  302EMI    C03 5722   4.679   1.081   1.912  1.2186 -0.0832 -0.1977
  302EMI    H07 5723   4.692   1.389   1.842  0.7255 -0.1251  0.8148
  302EMI    H09 5724   4.462   1.059   1.945  0.0185 -0.1202  0.0734
  302EMI    H08 5725   4.712   0.980   1.922  0.1146 -0.7956 -2.7564
  302EMI    C05 5726   4.896   1.191   1.861 -0.3098 -0.3183 -0.5174
  302EMI    H0B 5727   4.912   1.258   1.777 -0.3803 -1.4315 -1.4396
  302EMI    H0C 5728   4.939   1.231   1.952 -0.8055 -0.3630 -0.2624
  302EMI    H0D 5729   4.936   1.095   1.830 -0.2656 -0.0374 -1.3631
  302EMI    N00 5730   4.753   1.190   1.877  0.0475 -0.2044 -0.5332
  302EMI    C06 5731   4.425   1.327   1.881  0.5941  0.2244 -0.0312
  302EMI    H0F 5732   4.376   1.309   1.786  1.9172 -0.4902 -0.5999
  302EMI    C0N 5733   4.321   1.294   1.986  0.7690 -0.1729 -0.3487
  302EMI    H0O 5734   4.273   1.197   1.978 -3.1040  1.5270  0.3574
  302EMI    H0P 5735   4.370   1.297   2.083  1.2244  2.0338 -0.6049
  302EMI    H0Q 5736   4.240   1.365   1.983  0.3971 -0.6049 -0.5725
  302EMI    N02 5737   4.544   1.247   1.889 -0.0661  0.4178 -0.5619
  302EMI    H0E 5738   4.448   1.433   1.873  0.1346  0.4779  1.7169
  303EMI    C01 5739   2.980   1.799   0.081 -0.8068  0.0217 -0.6304
  303EMI    C04 5740   2.951   1.814  -0.133  1.7830 -0.6836 -0.0934
  303EMI    C03 5741   3.080   1.789  -0.112 -0.4458 -0.7368 -0.0302
  303EMI    H07 5742   2.961   1.797   0.187  1.0593 -2.1512 -0.2512
  303EMI    H09 5743   2.897   1.831  -0.223  1.0062  2.5014  0.8498
  303EMI    H08 5744   3.164   1.779  -0.177 -0.3607  3.2128 -0.8036
  303EMI    C05 5745   3.225   1.741   0.082  0.1638  0.0011  0.2769
  303EMI    H0B 5746   3.299   1.708   0.011  0.2424 -2.6552  1.4871
  303EMI    H0C 5747   3.274   1.831   0.115  2.3055 -0.2772 -1.8757
  303EMI    H0D 5748   3.206   1.668   0.160 -2.5739 -0.9650 -1.1696
  303EMI    N00 5749   3.095   1.776   0.021 -0.2290  0.9050  0.3297
  303EMI    C06 5750   2.738   1.856   0.021  0.2073  0.2962  0.0206
  303EMI    H0F 5751   2.718   1.869   0.126 -0.1512  2.7051 -0.2841
  303EMI    C0N 5752   2.695   1.981  -0.056 -0.3316 -0.0650  0.3362
  303EMI    H0O 5753   2.707   1.967  -0.163 -2.2414  1.4748 -0.1360
  303EMI    H0P 5754   2.589   1.999  -0.039 -0.0705  0.9042  1.0020
  303EMI    H0Q 5755   2.743   2.068  -0.014  0.6097 -0.7645  0.7335
  303EMI    N02 5756   2.883   1.814  -0.006  0.2132 -0.0728  0.4677
  303EMI    H0E 5757   2.672   1.778  -0.014 -0.0794  0.7177 -0.4090
  304EMI    C01 5758   0.077   3.106   3.910  0.0504  0.2643  0.3103
  304EMI    C04 5759   0.214   3.042   3.750 -0.1654 -0.5270  0.4121
  304EMI    C03 5760   0.278   3.035   3.864  0.0195  0.5714 -0.5829
  304EMI    H07 5761  -0.013   3.130   3.963  0.0845  0.6173  0.2070
  304EMI    H09 5762   0.250   3.016   3.653  0.0350  1.4610 -0.1000
  304EMI    H08 5763   0.375   2.999   3.888  0.4839  1.5756 -0.8828
  304EMI    C05 5764   0.238   3.110   4.102  0.4543 -0.2344 -0.7271
  304EMI    H0B 5765   0.171   3.176   4.156  1.5023 -0.8988  1.5378
  304EMI    H0C 5766   0.232   3.022   4.164 -1.7896  0.3987  0.0856
  304EMI    H0D 5767   0.339   3.145   4.090  0.3239  0.6862  0.6473
  304EMI    N00 5768   0.194   3.078   3.964 -0.4242  0.4550 -0.6210
  304EMI    C06 5769  -0.019   3.114   3.682  0.1542  0.5244 -0.1792
  304EMI    H0F 5770  -0.078   3.024   3.683  0.9383 -0.0450  2.5121
  304EMI    C0N 5771  -0.100   3.241   3.708 -0.0161 -0.0272 -0.3231
  304EMI    H0O 5772  -0.175   3.209   3.780 -0.2745  0.0881 -0.5392
  304EMI    H0P 5773  -0.036   3.318   3.748 -2.6578  2.2103 -0.1024
  304EMI    H0Q 5774  -0.141   3.289   3.620 -1.2207  1.5009  1.0152
  304EMI    N02 5775   0.088   3.092   3.779  0.2615  0.0497  0.1766
  304EMI    H0E 5776   0.030   3.122   3.586 -0.7222  2.5583 -0.5137
  305EMI    C01 5777   1.131   4.044   3.507 -0.9723  0.0690 -0.2782
  305EMI    C04 5778   1.179   4.082   3.721 -0.4277 -0.0859  0.7341
  305EMI    C03 5779   1.289   4.109   3.647 -0.5131  0.6744  0.6141
  305EMI    H07 5780   1.083   4.035   3.411 -2.3559  0.5441  0.3450
  305EMI    H09 5781   1.161   4.101   3.824  2.4665  2.5198  0.9077
  305EMI    H08 5782   1.388   4.139   3.672 -0.1923  0.6228 -0.5681
  305EMI    C05 5783   1.342   4.079   3.394  0.1194  0.0371 -0.0685
  305EMI    H0B 5784   1.284   4.057   3.305 -0.7533  0.7583  0.3124
  305EMI    H0C 5785   1.378   4.181   3.386 -1.0236  0.5392  0.9376
  305EMI    H0D 5786   1.436   4.026   3.389  0.3279  0.4685 -1.0858
  305EMI    N00 5787   1.256   4.063   3.515  0.0794 -0.0664  0.6055
  305EMI    C06 5788   0.952   3.983   3.667  0.4781 -0.4645  0.4170
  305EMI    H0F 5789   0.880   4.060   3.690  1.5838  0.9632 -0.6759
  305EMI    C0N 5790   0.901   3.889   3.562  0.3904  0.6657  0.1807
  305EMI    H0O 5791   0.849   3.946   3.486  0.3024  0.0898 -0.1980
  305EMI    H0P 5792   0.980   3.829   3.518  0.0250 -0.3289  0.8400
  305EMI    H0Q 5793   0.839   3.813   3.607 -1.7331  1.7224 -0.8157
  305EMI    N02 5794   1.082   4.038   3.630 -0.4261 -0.0349 -0.8955
  305EMI    H0E 5795   0.974   3.919   3.751 -0.7314 -1.9355 -0.3241
  306EMI    C01 5796   2.649   2.210   0.244 -0.3769 -0.1026 -0.2655
  306EMI    C04 5797   2.740   2.396   0.311  0.3926  0.1755  0.4758
  306EMI    C03 5798   2.608   2.412   0.310  0.5891 -0.1931 -0.2836
  306EMI    H07 5799   2.642   2.114   0.197  1.2069  0.0048 -0.7668
  306EMI    H09 5800   2.822   2.462   0.330  0.5132  0.8679 -2.0543
  306EMI    H08 5801   2.554   2.497   0.347  4.3061  2.2008  0.0870
  306EMI    C05 5802   2.407   2.286   0.258  0.2006 -0.6220  0.5383
  306EMI    H0B 5803   2.369   2.382   0.227  2.2378 -0.6738 -2.6629
  306EMI    H0C 5804   2.397   2.229   0.167  0.1040 -0.6442  0.5636
  306EMI    H0D 5805   2.347   2.249   0.339 -4.0456  1.6029 -1.2966
  306EMI    N00 5806   2.552   2.295   0.276  0.3268 -0.5367 -0.6800
  306EMI    C06 5807   2.901   2.203   0.258  0.1454 -0.5831 -0.0179
  306EMI    H0F 5808   2.878   2.100   0.235 -2.1750  0.0278 -0.6596
  306EMI    C0N 5809   2.991   2.268   0.151 -0.3474 -0.3537 -0.7020
  306EMI    H0O 5810   3.081   2.210   0.131 -0.3471 -1.0748  1.1538
  306EMI    H0P 5811   2.933   2.276   0.060 -0.3214 -3.4211 -1.0864
  306EMI    H0Q 5812   3.026   2.368   0.175 -1.4011 -0.1758  0.1581
  306EMI    N02 5813   2.767   2.269   0.267 -0.2832 -0.0736 -0.0155
  306EMI    H0E 5814   2.941   2.209   0.359 -0.9167  1.6602  0.3265
  307EMI    C01 5815   0.363   0.756   0.955 -0.6530 -0.1941 -0.3208
  307EMI    C04 5816   0.436   0.905   1.098 -0.0189  0.2223 -0.0162
  307EMI    C03 5817   0.542   0.865   1.031  0.1414 -0.3829 -0.2333
  307EMI    H07 5818   0.306   0.689   0.895  0.6767 -1.6284 -0.0398
  307EMI    H09 5819   0.436   0.977   1.177  1.6092  0.9365 -0.6318
  307EMI    H08 5820   0.645   0.892   1.037  0.8910 -3.2979  2.4662
  307EMI    C05 5821   0.588   0.692   0.851  0.4531  0.0907 -0.6666
  307EMI    H0B 5822   0.566   0.718   0.749  2.0458  0.7268 -0.8757
  307EMI    H0C 5823   0.689   0.727   0.864  0.8100 -1.0338 -0.2856
  307EMI    H0D 5824   0.589   0.584   0.859  2.0037  0.0119 -1.5793
  307EMI    N00 5825   0.495   0.766   0.944 -0.2601 -0.2398  0.6235
  307EMI    C06 5826   0.195   0.836   1.127 -0.4000 -0.2550 -0.7239
  307EMI    H0F 5827   0.140   0.756   1.078 -1.8468 -0.1181  0.5980
  307EMI    C0N 5828   0.199   0.798   1.278 -0.4696 -0.6031  0.2899
  307EMI    H0O 5829   0.099   0.787   1.321 -0.7483  2.5154  0.6839
  307EMI    H0P 5830   0.258   0.709   1.292  0.2603  0.0173  1.3522
  307EMI    H0Q 5831   0.251   0.881   1.325  0.5583 -1.5728  0.9036
  307EMI    N02 5832   0.325   0.831   1.057 -0.1274  0.5200 -0.4343
  307EMI    H0E 5833   0.162   0.938   1.117 -0.6476 -0.2428  0.1469
  308EMI    C01 5834   2.916   0.200   2.749  0.8775  0.8004  0.4800
  308EMI    C04 5835   2.703   0.141   2.735  0.2673 -0.0079  0.7333
  308EMI    C03 5836   2.782   0.033   2.711  0.1486 -0.5261 -0.1580
  308EMI    H07 5837   3.007   0.251   2.772  0.4046  1.0203  1.9583
  308EMI    H09 5838   2.597   0.156   2.726  0.5642  2.5080  0.6774
  308EMI    H08 5839   2.757  -0.069   2.692  1.3172 -1.3222  2.2151
  308EMI    C05 5840   3.030  -0.024   2.716  0.0915  1.6590 -0.8367
  308EMI    H0B 5841   2.995  -0.126   2.716  0.9105  1.3587  0.0468
  308EMI    H0C 5842   3.087   0.001   2.627  0.8615  0.8282 -0.5907
  308EMI    H0D 5843   3.106  -0.002   2.790 -0.4876  0.5941  0.0954
  308EMI    N00 5844   2.914   0.065   2.729 -0.2880  0.8646 -0.1822
  308EMI    C06 5845   2.762   0.387   2.798 -1.2463 -0.2999  0.7532
  308EMI    H0F 5846   2.668   0.416   2.754 -0.6449 -0.2120 -0.5055
  308EMI    C0N 5847   2.759   0.410   2.942 -0.5515 -0.1635 -0.1179
  308EMI    H0O 5848   2.697   0.496   2.962 -1.7783 -1.4246  1.8279
  308EMI    H0P 5849   2.716   0.331   3.003  0.0560  0.8208  1.6280
  308EMI    H0Q 5850   2.860   0.439   2.968 -0.3446  1.2985 -2.2552
  308EMI    N02 5851   2.792   0.247   2.768 -0.2480  0.5590 -0.1997
  308EMI    H0E 5852   2.835   0.451   2.749 -0.7387 -0.8203  0.8227
  309EMI    C01 5853   4.663   4.603   4.409 -0.1608 -0.1266 -0.4684
  309EMI    C04 5854   4.780   4.779   4.351 -0.0617  0.8075  0.2347
  309EMI    C03 5855   4.855   4.712   4.441  0.1375 -0.1718  1.0830
  309EMI    H07 5856   4.593   4.522   4.402  0.2321 -0.4659 -0.4497
  309EMI    H09 5857   4.810   4.870   4.304 -1.0579  0.5928 -0.8544
  309EMI    H08 5858   4.954   4.725   4.478  0.5519  1.4225 -0.4627
  309EMI    C05 5859   4.834   4.501   4.563 -0.4015 -0.1912 -0.2940
  309EMI    H0B 5860   4.866   4.545   4.657 -3.4267  0.1699  0.6520
  309EMI    H0C 5861   4.745   4.449   4.593 -1.7560  1.3036 -1.5702
  309EMI    H0D 5862   4.902   4.444   4.502  1.0512 -1.4208  2.2705
  309EMI    N00 5863   4.779   4.602   4.471 -0.0280 -0.5997  0.4759
  309EMI    C06 5864   4.540   4.766   4.273  0.4882  0.1841 -0.2394
  309EMI    H0F 5865   4.507   4.860   4.314 -2.8350 -0.7847 -0.4598
  309EMI    C0N 5866   4.552   4.761   4.125  0.1477 -0.7701  0.7483
  309EMI    H0O 5867   4.587   4.667   4.084 -2.0173 -1.2558 -0.1049
  309EMI    H0P 5868   4.452   4.759   4.083  1.0532  0.4557 -1.6509
  309EMI    H0Q 5869   4.604   4.846   4.082  1.2809 -1.1839  1.2597
  309EMI    N02 5870   4.655   4.717   4.339 -0.0632  0.1116  0.2241
  309EMI    H0E 5871   4.461   4.700   4.306  2.9178 -1.8940  1.8643
  310EMI    C01 5872   3.655   4.260   4.010 -0.0800  0.2245  0.7701
  310EMI    C04 5873   3.801   4.128   3.908 -0.4166  0.4980 -0.2339
  310EMI    C03 5874   3.725   4.182   3.815 -0.2649 -0.5981  0.5234
  310EMI    H07 5875   3.598   4.301   4.091  1.0039  0.7774  1.2680
  310EMI    H09 5876   3.879   4.055   3.911 -2.8079 -2.3584 -1.9786
  310EMI    H08 5877   3.728   4.174   3.709  1.4440  1.5243  0.3448
  310EMI    C05 5878   3.524   4.335   3.807  0.3549  0.0921  0.0231
  310EMI    H0B 5879   3.562   4.427   3.765  1.2404 -0.7571 -1.0915
  310EMI    H0C 5880   3.478   4.272   3.732  0.7652  0.2411 -0.3646
  310EMI    H0D 5881   3.446   4.370   3.873  0.4495  1.0210 -0.3419
  310EMI    N00 5882   3.632   4.263   3.879  0.5302  0.1588  0.1014
  310EMI    C06 5883   3.792   4.118   4.163 -0.0157 -0.4494 -0.3260
  310EMI    H0F 5884   3.782   4.197   4.236  0.7112 -0.1119 -0.5791
  310EMI    C0N 5885   3.719   3.993   4.200  0.1978 -0.5602  0.5865
  310EMI    H0O 5886   3.763   3.926   4.273 -0.1307 -1.7483 -0.2833
  310EMI    H0P 5887   3.620   4.028   4.227 -0.2839 -0.1046 -1.5767
  310EMI    H0Q 5888   3.705   3.931   4.112 -1.4290  1.0287 -0.3495
  310EMI    N02 5889   3.746   4.173   4.033 -0.4844  0.7840  0.8960
  310EMI    H0E 5890   3.899   4.110   4.157  0.0955  0.6203 -0.0572
  311EMI    C01 5891   3.276   2.845   0.093 -0.3210 -0.3588  0.5856
  311EMI    C04 5892   3.279   2.815  -0.128 -0.1348  0.1031 -0.2257
  311EMI    C03 5893   3.178   2.902  -0.094 -0.1952  0.4992 -0.2564
  311EMI    H07 5894   3.318   2.844   0.191  3.0140  1.4177 -0.6531
  311EMI    H09 5895   3.302   2.779  -0.226 -0.7331  0.3051 -0.4470
  311EMI    H08 5896   3.106   2.951  -0.155 -1.3689 -1.8402 -0.8460
  311EMI    C05 5897   3.094   3.012   0.120  0.3757 -0.7368 -0.0574
  311EMI    H0B 5898   3.039   3.088   0.066 -1.1891 -0.2323  2.1075
  311EMI    H0C 5899   3.014   2.956   0.166 -2.3020  0.5937 -2.7406
  311EMI    H0D 5900   3.161   3.050   0.195  3.1586 -2.4779 -1.4658
  311EMI    N00 5901   3.177   2.919   0.043  0.5061 -0.0022 -0.4991
  311EMI    C06 5902   3.445   2.686   0.012  0.4412  1.4922  0.1296
  311EMI    H0F 5903   3.459   2.679   0.119  1.0024 -0.7726 -0.0530
  311EMI    C0N 5904   3.405   2.538  -0.026 -0.5468 -0.0858 -0.3049
  311EMI    H0O 5905   3.304   2.520   0.011 -0.8500  0.8883 -0.6428
  311EMI    H0P 5906   3.398   2.517  -0.132  0.0429  0.1759 -0.3954
  311EMI    H0Q 5907   3.461   2.465   0.031  0.3531  0.5912 -0.2953
  311EMI    N02 5908   3.340   2.785  -0.006  0.5332 -0.0434  0.3110
  311EMI    H0E 5909   3.533   2.716  -0.044  0.9763  0.2965  0.3034
  312EMI    C01 5910   4.186   4.022   1.967  0.6630  0.0359  0.0727
  312EMI    C04 5911   4.197   3.814   1.906 -0.0461 -0.0245  0.1801
  312EMI    C03 5912   4.296   3.833   1.991 -0.2072 -0.6214  0.4562
  312EMI    H07 5913   4.157   4.125   1.968 -2.4536 -0.7321 -0.0946
  312EMI    H09 5914   4.171   3.722   1.858  0.7366 -1.5330  2.4548
  312EMI    H08 5915   4.365   3.765   2.035 -1.3140 -0.9022  1.8374
  312EMI    C05 5916   4.366   4.036   2.136 -0.0251  0.2649  0.6496
  312EMI    H0B 5917   4.311   4.126   2.161 -0.3251  0.6620 -1.3063
  312EMI    H0C 5918   4.397   3.984   2.226  0.1464  0.6720  0.8313
  312EMI    H0D 5919   4.459   4.082   2.106 -1.1674  3.0978  1.1103
  312EMI    N00 5920   4.285   3.968   2.035 -0.6190  0.0439  0.1311
  312EMI    C06 5921   4.017   3.959   1.796 -0.3338  0.3810  0.5486
  312EMI    H0F 5922   4.059   3.923   1.704  1.0404 -2.3862  2.1163
  312EMI    C0N 5923   3.890   3.890   1.836 -0.3917  0.8271 -0.4320
  312EMI    H0O 5924   3.855   3.943   1.924  0.5886  0.7107  0.0432
  312EMI    H0P 5925   3.811   3.888   1.762  0.4452  1.8154 -1.3840
  312EMI    H0Q 5926   3.927   3.790   1.855  2.6185  1.8942 -0.2450
  312EMI    N02 5927   4.132   3.933   1.888  0.6558 -0.2970  0.8482
  312EMI    H0E 5928   4.000   4.066   1.791 -3.8371 -0.1313 -3.2940
  313EMI    C01 5929   1.618   4.563   2.980 -1.1465 -0.0669 -0.6072
  313EMI    C04 5930   1.515   4.483   2.802 -0.0467  1.0325 -0.1848
  313EMI    C03 5931   1.601   4.575   2.757 -0.6129 -0.0526  0.2438
  313EMI    H07 5932   1.660   4.574   3.078  3.2672  0.0017 -2.2560
  313EMI    H09 5933   1.451   4.425   2.738 -0.2261  0.5886  0.3888
  313EMI    H08 5934   1.629   4.614   2.661 -1.0435  2.3692  1.0257
  313EMI    C05 5935   1.798   4.698   2.858 -0.3372 -0.1704 -0.2865
  313EMI    H0B 5936   1.784   4.805   2.852  4.2258  0.8666  2.4642
  313EMI    H0C 5937   1.860   4.678   2.944 -1.4879 -0.9762  0.3808
  313EMI    H0D 5938   1.842   4.668   2.764 -0.0232 -2.0454  0.4183
  313EMI    N00 5939   1.669   4.623   2.870  0.2689  0.3233  0.3688
  313EMI    C06 5940   1.470   4.366   3.029  0.0023 -0.0038 -0.4681
  313EMI    H0F 5941   1.372   4.406   3.053 -0.5508  0.5425 -3.3057
  313EMI    C0N 5942   1.474   4.236   2.951 -0.0373  0.3501 -0.5603
  313EMI    H0O 5943   1.413   4.237   2.862  0.5962  1.5924 -1.0048
  313EMI    H0P 5944   1.575   4.208   2.921 -0.6483 -2.2764 -0.3427
  313EMI    H0Q 5945   1.439   4.155   3.013 -0.9633  1.4507  0.3950
  313EMI    N02 5946   1.531   4.476   2.944 -0.2311  0.3387 -0.2474
  313EMI    H0E 5947   1.533   4.352   3.116  1.5682  1.2540 -1.3424
  314EMI    C01 5948   2.860   0.163   2.287 -0.4884 -0.3334 -1.5538
  314EMI    C04 5949   2.703   0.042   2.378  0.4280  0.2925 -0.0245
  314EMI    C03 5950   2.667   0.167   2.373 -0.1450 -0.1877 -0.1124
  314EMI    H07 5951   2.956   0.185   2.246  0.7092 -1.4222  0.5061
  314EMI    H09 5952   2.653  -0.046   2.411 -0.4541  1.3861  1.7094
  314EMI    H08 5953   2.573   0.218   2.386 -0.3092 -0.2747 -0.9115
  314EMI    C05 5954   2.758   0.387   2.294  0.0491  0.3072 -0.3731
  314EMI    H0B 5955   2.831   0.420   2.222 -0.3045 -1.7402 -1.7563
  314EMI    H0C 5956   2.658   0.423   2.278 -0.0011  1.5226  2.1200
  314EMI    H0D 5957   2.782   0.435   2.388 -0.4809 -0.5103  0.1995
  314EMI    N00 5958   2.766   0.242   2.314 -0.0236 -0.1792 -0.5119
  314EMI    C06 5959   2.917  -0.080   2.346  0.2955  0.7815  0.4625
  314EMI    H0F 5960   2.852  -0.164   2.359 -0.0513  1.0751  0.6583
  314EMI    C0N 5961   3.006  -0.093   2.222 -0.5044  0.2463 -0.5495
  314EMI    H0O 5962   2.993  -0.006   2.158  1.7703  1.0222 -0.0477
  314EMI    H0P 5963   3.106  -0.115   2.259 -1.0879  0.8218  1.4553
  314EMI    H0Q 5964   2.975  -0.178   2.161 -1.4477  0.8508 -0.9325
  314EMI    N02 5965   2.838   0.042   2.344  0.2552  0.3007 -0.3035
  314EMI    H0E 5966   2.966  -0.084   2.442 -0.9095 -2.4253  1.0508
  315EMI    C01 5967   2.905   2.167   0.640  0.5775 -0.1499 -0.6835
  315EMI    C04 5968   3.091   2.112   0.738 -0.8660 -0.0900  0.2694
  315EMI    C03 5969   3.098   2.244   0.708 -0.6673  0.7337  0.0655
  315EMI    H07 5970   2.805   2.160   0.605  0.3778 -2.0340  0.1384
  315EMI    H09 5971   3.162   2.044   0.779 -0.9172 -1.2062 -1.4067
  315EMI    H08 5972   3.183   2.308   0.719 -0.1137  0.0271 -0.0078
  315EMI    C05 5973   2.923   2.415   0.619 -0.0736  0.1195 -0.8688
  315EMI    H0B 5974   2.890   2.457   0.712 -2.6914 -0.7691 -1.3071
  315EMI    H0C 5975   3.004   2.476   0.581 -0.4428  1.4494  0.4088
  315EMI    H0D 5976   2.840   2.410   0.550 -1.4061 -2.1672  0.7756
  315EMI    N00 5977   2.979   2.276   0.647  0.0259  0.2599  0.3480
  315EMI    C06 5978   2.926   1.926   0.692 -0.4597  0.2135 -1.0463
  315EMI    H0F 5979   3.013   1.863   0.703 -2.6133 -3.0484 -1.3730
  315EMI    C0N 5980   2.827   1.919   0.808 -0.1115 -0.4192 -0.5214
  315EMI    H0O 5981   2.761   2.005   0.798  0.4525  0.2510  1.1578
  315EMI    H0P 5982   2.767   1.829   0.797 -0.7907  0.1953 -2.2364
  315EMI    H0Q 5983   2.880   1.922   0.902  0.7468 -1.5613 -0.9393
  315EMI    N02 5984   2.973   2.067   0.688  0.4235 -0.4300 -0.1031
  315EMI    H0E 5985   2.882   1.902   0.597 -2.3951  0.3320 -0.2435
  316EMI    C01 5986   1.467   2.843   2.412 -0.1765  0.2068 -1.0343
  316EMI    C04 5987   1.554   2.817   2.604 -0.0855  0.4855  0.0006
  316EMI    C03 5988   1.458   2.908   2.615  0.3583  0.5848 -0.3725
  316EMI    H07 5989   1.454   2.834   2.306 -3.1585  2.8110 -1.0571
  316EMI    H09 5990   1.609   2.775   2.685 -0.3461  0.0302 -0.0569
  316EMI    H08 5991   1.437   2.959   2.706 -0.8645 -0.3241 -0.1282
  316EMI    C05 5992   1.295   3.032   2.465 -0.6930  0.3127 -0.6383
  316EMI    H0B 5993   1.197   2.995   2.493 -0.0132 -0.5446  0.7079
  316EMI    H0C 5994   1.317   3.122   2.520 -0.1565  0.1987 -0.6629
  316EMI    H0D 5995   1.290   3.046   2.358 -1.1201  1.3863 -0.4852
  316EMI    N00 5996   1.412   2.936   2.490  0.2539  0.3192 -0.1267
  316EMI    C06 5997   1.660   2.675   2.425  0.4036 -0.1815 -0.1396
  316EMI    H0F 5998   1.683   2.597   2.495 -0.0260 -0.5898 -0.4499
  316EMI    C0N 5999   1.608   2.610   2.297 -0.1508 -0.3793 -0.4972
  316EMI    H0O 6000   1.512   2.566   2.319 -0.0265  0.1265  1.1575
  316EMI    H0P 6001   1.581   2.668   2.210  1.1005 -0.6568 -1.1077
  316EMI    H0Q 6002   1.677   2.535   2.259  2.0593  1.1193  0.3640
  316EMI    N02 6003   1.568   2.781   2.474  0.1425 -0.2130  0.6692
  316EMI    H0E 6004   1.752   2.730   2.411  0.5232  0.3865  2.4280
  317EMI    C01 6005   3.419   2.246   0.545  0.4172  0.2433 -0.3779
  317EMI    C04 6006   3.482   2.420   0.655  0.0270 -0.4737 -0.2728
  317EMI    C03 6007   3.460   2.459   0.531 -0.1026  0.3173  0.1231
  317EMI    H07 6008   3.393   2.145   0.522 -0.3494  0.5674 -0.9927
  317EMI    H09 6009   3.525   2.475   0.735  1.0142 -1.3801 -0.1541
  317EMI    H08 6010   3.475   2.553   0.483  0.4416  0.9478  1.4816
  317EMI    C05 6011   3.370   2.337   0.319 -0.2267 -0.8004 -0.4285
  317EMI    H0B 6012   3.263   2.338   0.313 -0.2358  1.2426 -0.6142
  317EMI    H0C 6013   3.414   2.427   0.277 -0.2483 -0.8135 -0.4789
  317EMI    H0D 6014   3.387   2.246   0.264  1.1229  0.0186 -1.4356
  317EMI    N00 6015   3.417   2.347   0.460 -0.1199 -0.4731 -0.0904
  317EMI    C06 6016   3.484   2.198   0.785  1.2329  0.5035  0.3716
  317EMI    H0F 6017   3.395   2.174   0.840  0.5805 -0.4055 -1.0249
  317EMI    C0N 6018   3.566   2.074   0.755  0.3225  0.4420  0.4819
  317EMI    H0O 6019   3.641   2.103   0.681 -1.7673 -0.4397 -2.1432
  317EMI    H0P 6020   3.605   2.041   0.850  0.1392  0.4334  0.5533
  317EMI    H0Q 6021   3.498   2.001   0.712 -1.1706  0.9225  1.9764
  317EMI    N02 6022   3.457   2.287   0.664  0.0609  0.5795 -0.1370
  317EMI    H0E 6023   3.556   2.253   0.844  1.3793  1.3843 -0.5921
  318EMI    C01 6024   2.340   1.800   0.648 -0.6898  0.3206 -0.5979
  318EMI    C04 6025   2.478   1.971   0.666  0.6389 -0.1866 -0.4722
  318EMI    C03 6026   2.497   1.892   0.773 -0.1542 -1.3015 -0.5140
  318EMI    H07 6027   2.267   1.735   0.604 -1.5475 -0.4033  1.7383
  318EMI    H09 6028   2.523   2.057   0.621 -2.2165  2.5711  1.4617
  318EMI    H08 6029   2.564   1.890   0.856 -0.2619  0.3940 -0.3506
  318EMI    C05 6030   2.406   1.663   0.850 -0.0159 -0.1418  0.4266
  318EMI    H0B 6031   2.483   1.669   0.925 -1.2524  0.5399  1.6867
  318EMI    H0C 6032   2.314   1.647   0.904 -0.0043 -1.5900  0.0372
  318EMI    H0D 6033   2.429   1.574   0.794 -1.1479  0.0813 -0.4313
  318EMI    N00 6034   2.411   1.782   0.760 -0.1072 -0.0888 -0.0376
  318EMI    C06 6035   2.310   1.990   0.485 -0.2533 -0.2665 -0.3680
  318EMI    H0F 6036   2.297   1.922   0.402 -1.5207 -0.7339  0.1902
  318EMI    C0N 6037   2.186   2.068   0.515  0.2286 -0.0816 -0.3635
  318EMI    H0O 6038   2.136   2.087   0.421 -0.1384 -0.6822 -0.2977
  318EMI    H0P 6039   2.116   2.001   0.564  1.5951 -1.8733 -0.7418
  318EMI    H0Q 6040   2.204   2.159   0.571  1.5935 -1.3311  1.3625
  318EMI    N02 6041   2.374   1.918   0.596  0.1544  0.1508 -0.3752
  318EMI    H0E 6042   2.383   2.057   0.442 -1.9567  1.0668 -1.3316
  319EMI    C01 6043   3.222   0.180   4.896  0.5270  0.3190 -0.5367
  319EMI    C04 6044   3.370   0.025   4.905 -0.0516  0.0397 -0.6089
  319EMI    C03 6045   3.408   0.131   4.979  0.3117  0.3401  0.0065
  319EMI    H07 6046   3.138   0.237   4.863  0.5932  0.6549 -0.1248
  319EMI    H09 6047   3.428  -0.062   4.884 -0.0997 -0.2657  0.4604
  319EMI    H08 6048   3.502   0.136   5.030  0.4356  0.3521 -0.2214
  319EMI    C05 6049   3.323   0.358   5.050 -0.2838 -0.2055 -0.3528
  319EMI    H0B 6050   3.426   0.383   5.033 -0.1181  0.5927  1.6023
  319EMI    H0C 6051   3.258   0.432   5.005  2.0969  2.9078  0.8894
  319EMI    H0D 6052   3.302   0.335   5.153  1.3436 -3.6695 -0.6797
  319EMI    N00 6053   3.308   0.228   4.982  0.3310 -0.7026 -0.6101
  319EMI    C06 6054   3.159  -0.040   4.776  0.3396 -0.5186 -0.2548
  319EMI    H0F 6055   3.081  -0.100   4.821 -0.3615  0.6989  0.1909
  319EMI    C0N 6056   3.086   0.031   4.666 -0.8914 -0.4282 -0.3049
  319EMI    H0O 6057   3.162   0.065   4.597  1.0572 -3.7906 -0.0148
  319EMI    H0P 6058   3.013  -0.031   4.616  0.5210 -1.6095 -0.9633
  319EMI    H0Q 6059   3.025   0.108   4.713  0.1970  0.3837 -0.1677
  319EMI    N02 6060   3.239   0.047   4.864  0.0069 -0.1625  0.4553
  319EMI    H0E 6061   3.235  -0.101   4.729  0.0323 -2.3611  1.4722
  320EMI    C01 6062   1.912   3.384   0.647  0.1670 -0.4849 -0.3031
  320EMI    C04 6063   2.126   3.392   0.620 -0.7162  0.4238  0.2924
  320EMI    C03 6064   2.078   3.519   0.618 -0.3010  0.1131 -0.1589
  320EMI    H07 6065   1.813   3.346   0.653  0.7065 -1.8790  0.2110
  320EMI    H09 6066   2.231   3.370   0.623 -0.1911  2.6648  0.8377
  320EMI    H08 6067   2.128   3.613   0.607  1.9518 -0.8054  1.5363
  320EMI    C05 6068   1.848   3.616   0.623  1.1549 -0.0922 -0.0185
  320EMI    H0B 6069   1.846   3.669   0.716 -1.2174  0.1610 -0.1526
  320EMI    H0C 6070   1.882   3.686   0.548  0.9403  0.2218  0.1783
  320EMI    H0D 6071   1.749   3.576   0.609  1.9594 -2.4276  0.3872
  320EMI    N00 6072   1.942   3.510   0.639 -0.2053 -0.0180  0.1608
  320EMI    C06 6073   2.035   3.164   0.669  0.1421 -0.1880  0.5520
  320EMI    H0F 6074   2.016   3.142   0.773 -1.5570 -1.4633  0.0268
  320EMI    C0N 6075   1.957   3.060   0.577 -0.4192 -0.0356 -0.0168
  320EMI    H0O 6076   1.930   3.087   0.475 -3.3500 -0.5414  0.5495
  320EMI    H0P 6077   2.013   2.967   0.572 -0.5123 -0.0735 -0.3806
  320EMI    H0Q 6078   1.862   3.040   0.624 -0.9715  0.8894 -0.6959
  320EMI    N02 6079   2.018   3.307   0.643 -0.2500 -0.6790  0.0983
  320EMI    H0E 6080   2.141   3.153   0.654  0.0147 -1.9200  0.6899
  321EMI    C01 6081   4.673   3.493   2.722 -0.1017  0.5503 -0.3900
  321EMI    C04 6082   4.512   3.543   2.583  0.4572 -1.2489  0.0386
  321EMI    C03 6083   4.456   3.501   2.694 -0.1490 -1.2068  0.5280
  321EMI    H07 6084   4.772   3.480   2.762 -1.0591 -0.0191  1.9630
  321EMI    H09 6085   4.491   3.572   2.482  1.4946 -0.5784 -0.0001
  321EMI    H08 6086   4.353   3.495   2.721  0.4632 -0.9167  3.1721
  321EMI    C05 6087   4.556   3.399   2.910 -0.1507  0.4019 -0.2335
  321EMI    H0B 6088   4.463   3.343   2.905  0.2137 -0.2121 -0.2816
  321EMI    H0C 6089   4.638   3.329   2.913 -0.2618  0.2909  0.4221
  321EMI    H0D 6090   4.554   3.463   2.997 -0.0510 -0.0492  0.1063
  321EMI    N00 6091   4.561   3.470   2.783 -0.2532 -0.5338 -0.0886
  321EMI    C06 6092   4.741   3.580   2.499  0.1273 -0.0922  0.8083
  321EMI    H0F 6093   4.840   3.556   2.537  0.8595  0.4634 -0.6835
  321EMI    C0N 6094   4.715   3.507   2.363 -0.7650  0.2520 -1.2196
  321EMI    H0O 6095   4.618   3.535   2.323 -1.6044 -2.3880 -1.2562
  321EMI    H0P 6096   4.780   3.548   2.287  0.4628  1.6307  0.5071
  321EMI    H0Q 6097   4.732   3.400   2.368  2.9380  0.7653  2.2182
  321EMI    N02 6098   4.643   3.548   2.608 -0.2289 -0.0088 -0.0008
  321EMI    H0E 6099   4.742   3.684   2.470  0.3445 -0.2149  0.3666
  322EMI    C01 6100   3.017   4.295   4.517  0.3901  0.0523 -0.2189
  322EMI    C04 6101   3.119   4.103   4.518  0.3042  0.0154 -0.4418
  322EMI    C03 6102   3.151   4.166   4.403 -0.9409  0.3672 -0.1874
  322EMI    H07 6103   2.944   4.372   4.531  0.3384  0.1764 -1.1683
  322EMI    H09 6104   3.156   4.010   4.555  0.0296  0.4750  1.0612
  322EMI    H08 6105   3.225   4.137   4.331  0.6751  1.5358  0.9178
  322EMI    C05 6106   3.070   4.377   4.281  0.2817  0.7945 -0.3912
  322EMI    H0B 6107   3.169   4.419   4.273  0.6810 -0.3556 -2.1016
  322EMI    H0C 6108   3.043   4.310   4.201  4.2510 -0.9627 -0.4812
  322EMI    H0D 6109   2.984   4.440   4.299 -0.5387  0.2417 -2.1440
  322EMI    N00 6110   3.074   4.284   4.398 -0.9067 -0.5297 -0.4527
  322EMI    C06 6111   2.968   4.154   4.714  0.2273  0.0145 -0.3340
  322EMI    H0F 6112   3.047   4.099   4.762  1.1337  0.6684 -1.0421
  322EMI    C0N 6113   2.917   4.269   4.798  0.5825 -0.6345 -0.4429
  322EMI    H0O 6114   2.957   4.367   4.779 -0.9097  0.3824  1.2703
  322EMI    H0P 6115   2.809   4.264   4.791  0.3485  0.8867  1.3065
  322EMI    H0Q 6116   2.943   4.257   4.903  0.7327 -1.2122 -0.5383
  322EMI    N02 6117   3.032   4.191   4.591 -0.0990  0.2672  0.1362
  322EMI    H0E 6118   2.887   4.083   4.709  1.0999 -0.9870 -0.5001
  323EMI    C01 6119   2.377   0.243   0.446 -0.6790 -0.1620 -1.0517
  323EMI    C04 6120   2.420   0.420   0.330 -0.4013  0.9266 -0.3993
  323EMI    C03 6121   2.388   0.320   0.247 -0.2352 -0.1514  0.2363
  323EMI    H07 6122   2.371   0.179   0.531  2.5599  0.6296 -0.0686
  323EMI    H09 6123   2.439   0.523   0.310  0.9916  0.7229 -0.2245
  323EMI    H08 6124   2.385   0.315   0.140  0.1840  0.1908  0.2066
  323EMI    C05 6125   2.343   0.070   0.279  0.2605  0.8749 -0.0997
  323EMI    H0B 6126   2.237   0.058   0.259  0.1847  0.2692  0.6214
  323EMI    H0C 6127   2.411   0.043   0.199 -0.5377 -0.5727 -0.3181
  323EMI    H0D 6128   2.385   0.007   0.356 -1.8203 -0.8059 -0.2203
  323EMI    N00 6129   2.370   0.204   0.321 -0.3663 -0.3840 -0.2214
  323EMI    C06 6130   2.394   0.457   0.577 -0.0389  0.4789 -0.1055
  323EMI    H0F 6131   2.485   0.508   0.605  0.4799 -0.2643 -0.4204
  323EMI    C0N 6132   2.281   0.557   0.571 -0.0220 -0.4519 -0.6586
  323EMI    H0O 6133   2.198   0.525   0.509 -0.9663  0.7895 -0.0750
  323EMI    H0P 6134   2.252   0.585   0.672 -0.2895 -1.3997 -0.4567
  323EMI    H0Q 6135   2.315   0.643   0.515  2.1952 -1.2454 -0.6006
  323EMI    N02 6136   2.403   0.369   0.457 -0.3093  0.2149 -0.1472
  323EMI    H0E 6137   2.379   0.388   0.659 -1.6400  1.3009  0.3304
  324EMI    C01 6138   4.317   0.469   3.512  0.1409 -0.3646 -0.4026
  324EMI    C04 6139   4.154   0.584   3.420  0.5567 -0.9983 -0.2251
  324EMI    C03 6140   4.143   0.462   3.379  0.0493 -0.2509  0.1856
  324EMI    H07 6141   4.402   0.442   3.571  0.1098  1.2315  0.4516
  324EMI    H09 6142   4.102   0.674   3.392  2.5861  0.0893 -0.7169
  324EMI    H08 6143   4.064   0.436   3.312  0.4654 -0.0591 -0.3817
  324EMI    C05 6144   4.279   0.244   3.407  0.1022  0.0413 -0.4342
  324EMI    H0B 6145   4.283   0.223   3.301 -1.0454 -0.5362 -0.3771
  324EMI    H0C 6146   4.374   0.224   3.454 -0.8648  0.0866  1.6377
  324EMI    H0D 6147   4.216   0.181   3.469  1.0053 -0.3170  0.1415
  324EMI    N00 6148   4.251   0.386   3.434  0.4397 -0.4126  0.9711
  324EMI    C06 6149   4.293   0.705   3.589  0.4547 -0.4684 -0.3524
  324EMI    H0F 6150   4.254   0.787   3.530  1.7696 -0.2986 -1.0169
  324EMI    C0N 6151   4.250   0.700   3.735  0.1696  0.2217  0.4041
  324EMI    H0O 6152   4.284   0.791   3.785  0.1035 -0.3790  1.5936
  324EMI    H0P 6153   4.142   0.707   3.748 -0.1022 -2.7977  0.5233
  324EMI    H0Q 6154   4.272   0.611   3.793 -0.5672  0.3748  0.9366
  324EMI    N02 6155   4.259   0.585   3.511 -0.7067  0.2524  0.6487
  324EMI    H0E 6156   4.397   0.727   3.574  0.4670 -0.7241 -0.6483
  325EMI    C01 6157   3.591   0.847   4.168  0.0512 -0.0192 -0.3106
  325EMI    C04 6158   3.446   1.004   4.146 -0.3255 -0.1011  0.1178
  325EMI    C03 6159   3.371   0.893   4.165 -0.5092  0.0123  0.7568
  325EMI    H07 6160   3.682   0.793   4.176  0.2076  0.1573 -0.9171
  325EMI    H09 6161   3.417   1.106   4.133  1.3265  0.6437  1.8752
  325EMI    H08 6162   3.268   0.868   4.151 -0.0314 -1.4028 -0.5970
  325EMI    C05 6163   3.448   0.654   4.210 -0.7928 -0.2043  0.2640
  325EMI    H0B 6164   3.392   0.636   4.301  0.3403  2.0978  1.5040
  325EMI    H0C 6165   3.395   0.625   4.121  0.5791 -0.2491 -0.5739
  325EMI    H0D 6166   3.539   0.595   4.204 -1.8404 -1.9098  0.6707
  325EMI    N00 6167   3.470   0.797   4.184  0.3965  0.0271  0.2607
  325EMI    C06 6168   3.690   1.065   4.137 -0.6586  0.0287  0.3011
  325EMI    H0F 6169   3.772   1.056   4.207 -0.4573  0.3603  0.1106
  325EMI    C0N 6170   3.743   1.075   3.995 -0.1656 -0.3687 -1.1100
  325EMI    H0O 6171   3.669   1.085   3.917  1.2085  0.3753 -2.3747
  325EMI    H0P 6172   3.807   1.162   3.990 -1.2268  0.3722 -2.1321
  325EMI    H0Q 6173   3.804   0.985   3.986 -1.8635 -2.0292  2.3229
  325EMI    N02 6174   3.577   0.976   4.148  0.3210 -0.3387  0.5959
  325EMI    H0E 6175   3.656   1.167   4.144 -2.3132 -0.3614 -1.3684
  326EMI    C01 6176   2.237   3.876   3.148  0.1278  0.0215  0.1881
  326EMI    C04 6177   2.251   3.852   3.358  0.0603 -0.8427 -0.3749
  326EMI    C03 6178   2.312   3.967   3.328 -0.1539 -0.0789 -0.1566
  326EMI    H07 6179   2.205   3.853   3.049 -0.0462  0.3030  0.1807
  326EMI    H09 6180   2.242   3.807   3.454 -0.6783 -1.6227 -0.7936
  326EMI    H08 6181   2.359   4.033   3.397  1.5450 -0.1680 -1.1946
  326EMI    C05 6182   2.361   4.089   3.113 -0.9114  0.4434  0.4902
  326EMI    H0B 6183   2.469   4.094   3.120 -0.8026  0.6150 -0.9058
  326EMI    H0C 6184   2.343   4.082   3.006 -0.7330 -2.4449  0.5919
  326EMI    H0D 6185   2.310   4.175   3.155  0.5451  1.0286  1.1453
  326EMI    N00 6186   2.309   3.977   3.194  0.2551  0.3173  0.5335
  326EMI    C06 6187   2.140   3.665   3.246 -0.4260  0.3395 -0.0804
  326EMI    H0F 6188   2.060   3.675   3.319  1.1231  2.5987  1.4617
  326EMI    C0N 6189   2.097   3.613   3.109  0.8405 -0.1570 -0.2836
  326EMI    H0O 6190   2.036   3.523   3.111 -1.4784  1.3312  0.4934
  326EMI    H0P 6191   2.039   3.690   3.060  0.2019  0.1382  0.8860
  326EMI    H0Q 6192   2.182   3.602   3.043  0.1047 -0.5322 -1.1844
  326EMI    N02 6193   2.208   3.792   3.250  0.4484 -0.2632  0.4400
  326EMI    H0E 6194   2.206   3.593   3.292 -1.5871  0.4431  1.8769
  327EMI    C01 6195   0.365   1.555   1.386 -0.8097  0.9015 -0.3926
  327EMI    C04 6196   0.570   1.611   1.436  0.4967  0.3335  0.0857
  327EMI    C03 6197   0.486   1.700   1.487 -0.1496 -0.8821 -0.6227
  327EMI    H07 6198   0.280   1.503   1.349  0.2371  0.1951 -1.9117
  327EMI    H09 6199   0.676   1.616   1.447  0.5513 -2.0261  1.1458
  327EMI    H08 6200   0.515   1.788   1.541 -0.6092  0.6210 -2.6929
  327EMI    C05 6201   0.238   1.721   1.510 -0.0157 -0.0826 -0.1824
  327EMI    H0B 6202   0.192   1.774   1.427  0.4486  0.8695  0.1552
  327EMI    H0C 6203   0.172   1.643   1.546 -0.6856  1.7215  2.7618
  327EMI    H0D 6204   0.254   1.762   1.608 -2.2296 -1.5514  0.8657
  327EMI    N00 6205   0.354   1.660   1.462 -0.0914 -0.0026  0.3520
  327EMI    C06 6206   0.528   1.385   1.319  0.2120 -0.7011  0.0406
  327EMI    H0F 6207   0.531   1.317   1.403  3.0658  1.2218  1.6592
  327EMI    C0N 6208   0.454   1.342   1.192  0.5153 -0.4149  0.0776
  327EMI    H0O 6209   0.483   1.243   1.159 -0.5917 -0.2496 -1.5334
  327EMI    H0P 6210   0.347   1.358   1.198  0.9716  4.3937 -0.0898
  327EMI    H0Q 6211   0.499   1.407   1.117  1.9317 -1.3314  0.0930
  327EMI    N02 6212   0.490   1.515   1.381  0.4134  0.2363  0.4958
  327EMI    H0E 6213   0.626   1.405   1.278  0.2852  3.6604  1.7750
  328EMI    C01 6214   4.745   0.421   4.588  0.5468  0.1696 -0.5749
  328EMI    C04 6215   4.602   0.518   4.463  1.5541 -0.1873 -0.7015
  328EMI    C03 6216   4.720   0.549   4.412 -0.0893  0.0808 -0.5494
  328EMI    H07 6217   4.795   0.375   4.670  1.3100  1.4358 -0.3001
  328EMI    H09 6218   4.505   0.543   4.426  0.7002  1.3668  2.2350
  328EMI    H08 6219   4.757   0.607   4.331  0.3738  1.4340  0.5763
  328EMI    C05 6220   4.948   0.495   4.480 -0.3346  0.3738  0.7306
  328EMI    H0B 6221   4.997   0.433   4.553 -0.1069 -2.1936 -1.4579
  328EMI    H0C 6222   4.961   0.451   4.382 -0.5552 -0.5251  1.0893
  328EMI    H0D 6223   4.990   0.594   4.486  0.4541  0.0204  1.0967
  328EMI    N00 6224   4.806   0.491   4.497  1.0383  0.0260 -0.3275
  328EMI    C06 6225   4.515   0.387   4.655  0.6171  0.2823 -0.0824
  328EMI    H0F 6226   4.555   0.299   4.702 -1.9037 -2.1310 -2.0950
  328EMI    C0N 6227   4.473   0.488   4.759 -0.0147 -0.1193  0.6387
  328EMI    H0O 6228   4.545   0.501   4.839 -0.4069  2.3479  0.6747
  328EMI    H0P 6229   4.451   0.584   4.713 -2.2522 -1.9323 -2.5054
  328EMI    H0Q 6230   4.383   0.453   4.808 -1.9290  2.2318 -0.9426
  328EMI    N02 6231   4.618   0.431   4.568  0.3837 -0.1847  0.2928
  328EMI    H0E 6232   4.433   0.335   4.607  0.4409 -0.3252  0.8693
  329EMI    C01 6233   2.392   2.480   1.417  0.6674 -0.4610  0.1560
  329EMI    C04 6234   2.176   2.443   1.409  0.4286 -0.5129 -0.1615
  329EMI    C03 6235   2.208   2.463   1.536 -0.5957 -0.4569 -0.2905
  329EMI    H07 6236   2.493   2.482   1.381  0.1993 -1.5750 -1.3516
  329EMI    H09 6237   2.083   2.422   1.361 -0.3192  2.6616 -0.2859
  329EMI    H08 6238   2.144   2.449   1.621 -1.4261 -2.1181 -1.1418
  329EMI    C05 6239   2.429   2.505   1.665 -0.3266  0.2148  0.2321
  329EMI    H0B 6240   2.373   2.544   1.749 -0.8746  2.5057 -1.1245
  329EMI    H0C 6241   2.469   2.407   1.687 -0.6539  0.3338  1.4158
  329EMI    H0D 6242   2.508   2.575   1.645 -1.2845  1.3821  0.4113
  329EMI    N00 6243   2.345   2.487   1.544  0.0545 -0.2049  0.8562
  329EMI    C06 6244   2.299   2.459   1.179  0.0371 -0.1559  0.4509
  329EMI    H0F 6245   2.282   2.558   1.140  0.2430 -0.6605 -1.0092
  329EMI    C0N 6246   2.431   2.405   1.133 -0.1452  0.0628  0.5058
  329EMI    H0O 6247   2.516   2.469   1.152 -0.4787  1.2207 -1.4930
  329EMI    H0P 6248   2.454   2.309   1.176  1.1290  1.2633  2.6700
  329EMI    H0Q 6249   2.437   2.396   1.025 -1.6593 -2.4051  0.5640
  329EMI    N02 6250   2.289   2.464   1.332  0.2165  0.3478 -0.2917
  329EMI    H0E 6251   2.225   2.390   1.141  0.4007  0.3121 -1.2033
  330EMI    C01 6252   0.153   0.258   1.418  1.0065 -0.2252  0.0109
  330EMI    C04 6253   0.364   0.280   1.375  0.2545  0.3907  0.5215
  330EMI    C03 6254   0.317   0.397   1.424  0.2912 -0.2074 -1.0154
  330EMI    H07 6255   0.050   0.229   1.422  0.4084  1.7628 -0.0080
  330EMI    H09 6256   0.463   0.261   1.341  0.4480  4.2588 -1.6717
  330EMI    H08 6257   0.359   0.494   1.435 -1.2534  0.4045 -0.2029
  330EMI    C05 6258   0.095   0.474   1.514  0.3333 -0.0443 -0.6266
  330EMI    H0B 6259   0.027   0.501   1.435 -0.7563 -3.1971 -0.9072
  330EMI    H0C 6260   0.037   0.432   1.595  0.7187 -0.8986 -0.7793
  330EMI    H0D 6261   0.146   0.562   1.550  2.0030 -0.9680 -0.6637
  330EMI    N00 6262   0.188   0.376   1.462  0.0764  0.1685  0.1103
  330EMI    C06 6263   0.279   0.050   1.342 -0.1273 -0.3697 -0.2836
  330EMI    H0F 6264   0.360   0.026   1.409 -0.5088  0.7273  0.6147
  330EMI    C0N 6265   0.167  -0.033   1.389 -0.2665 -0.8206 -0.8608
  330EMI    H0O 6266   0.080  -0.040   1.324 -0.0889 -0.5086 -1.1343
  330EMI    H0P 6267   0.191  -0.138   1.404 -0.4403 -1.1577 -2.6490
  330EMI    H0Q 6268   0.135   0.011   1.482  0.2873  0.1057 -1.1033
  330EMI    N02 6269   0.260   0.190   1.371 -0.6339 -0.3209  0.0437
  330EMI    H0E 6270   0.295   0.039   1.236 -1.0744 -0.0262 -0.4769
  331EMI    C01 6271   1.297   2.649   2.010  0.1112  0.1677  0.0873
  331EMI    C04 6272   1.473   2.549   1.940  0.3394  0.6238  0.5945
  331EMI    C03 6273   1.483   2.678   1.893  0.4508  0.4496 -0.6187
  331EMI    H07 6274   1.197   2.674   2.037 -1.5537 -2.0382 -3.3805
  331EMI    H09 6275   1.531   2.460   1.923 -1.7457 -0.6523 -0.1916
  331EMI    H08 6276   1.546   2.733   1.827  0.7970  2.1566  1.0569
  331EMI    C05 6277   1.313   2.869   1.922  0.0340  0.5184 -0.1518
  331EMI    H0B 6278   1.334   2.903   1.821  1.4990 -0.2129 -0.1221
  331EMI    H0C 6279   1.205   2.859   1.925  0.2026 -1.4465  1.2409
  331EMI    H0D 6280   1.362   2.947   1.978  1.9455 -0.0921 -0.8880
  331EMI    N00 6281   1.368   2.737   1.944 -0.6533 -0.1187  0.0938
  331EMI    C06 6282   1.305   2.401   2.056 -0.4655 -0.6882  0.1008
  331EMI    H0F 6283   1.277   2.355   1.962 -0.3159  1.1661 -0.9140
  331EMI    C0N 6284   1.404   2.330   2.147 -0.0372 -0.0119 -0.4540
  331EMI    H0O 6285   1.362   2.237   2.184 -0.4893 -0.6779 -2.4808
  331EMI    H0P 6286   1.493   2.298   2.093 -0.6129 -2.0461 -0.2763
  331EMI    H0Q 6287   1.433   2.399   2.225 -0.2200  2.1922 -2.2230
  331EMI    N02 6288   1.354   2.533   2.004  0.0147  0.1748 -0.0720
  331EMI    H0E 6289   1.218   2.434   2.111  1.5046  1.2020  2.2885
  332EMI    C01 6290   1.722   2.527   4.050  0.4629  0.2822 -0.8084
  332EMI    C04 6291   1.803   2.332   4.092 -0.0538  0.0879  0.2653
  332EMI    C03 6292   1.799   2.405   4.203  0.4975 -0.3391  0.0464
  332EMI    H07 6293   1.680   2.611   3.997  0.6976  1.8735  1.4008
  332EMI    H09 6294   1.848   2.235   4.096 -0.3080  0.0063  3.2272
  332EMI    H08 6295   1.843   2.383   4.298  2.0090  0.3882 -0.4389
  332EMI    C05 6296   1.750   2.655   4.259 -0.1574  0.1835  0.2278
  332EMI    H0B 6297   1.848   2.677   4.300  0.0990 -0.5975  0.0404
  332EMI    H0C 6298   1.711   2.741   4.206 -1.0067  1.0895  2.2410
  332EMI    H0D 6299   1.689   2.651   4.348  0.6690  0.9219  0.8510
  332EMI    N00 6300   1.756   2.535   4.176  0.2678  0.0407  0.1956
  332EMI    C06 6301   1.764   2.396   3.839  0.1213  0.3752 -1.0634
  332EMI    H0F 6302   1.851   2.333   3.827 -0.1809 -0.3500  0.3863
  332EMI    C0N 6303   1.635   2.333   3.794  1.0257  0.2576  0.0666
  332EMI    H0O 6304   1.638   2.235   3.840  0.8499  1.1396  2.0306
  332EMI    H0P 6305   1.544   2.381   3.828  0.1852 -0.8864 -0.4777
  332EMI    H0Q 6306   1.626   2.322   3.686 -1.4869  0.0808  0.2353
  332EMI    N02 6307   1.767   2.421   3.987 -0.5887 -0.5887 -0.0964
  332EMI    H0E 6308   1.799   2.489   3.795  1.5600 -0.2347 -1.2753
  333EMI    C01 6309   0.140   3.583   2.484 -0.4303 -0.6168 -0.1531
  333EMI    C04 6310   0.060   3.588   2.280  0.1701 -0.5240  0.3293
  333EMI    C03 6311   0.022   3.475   2.336 -0.2827 -0.6229 -0.0046
  333EMI    H07 6312   0.190   3.609   2.575  1.5870 -3.0086 -0.4839
  333EMI    H09 6313   0.048   3.620   2.179  2.8190 -2.3816 -0.6876
  333EMI    H08 6314  -0.026   3.392   2.289 -0.9812 -0.6836  0.7877
  333EMI    C05 6315   0.081   3.354   2.559 -0.3869 -0.3620 -0.5197
  333EMI    H0B 6316   0.179   3.315   2.584 -0.3030 -0.6617 -1.2744
  333EMI    H0C 6317   0.045   3.387   2.655 -1.0118 -0.3772 -0.7407
  333EMI    H0D 6318   0.024   3.271   2.520  1.0453 -2.1411  1.0029
  333EMI    N00 6319   0.084   3.467   2.464  0.0697 -0.1273 -0.2732
  333EMI    C06 6320   0.170   3.796   2.366 -0.6351 -0.0524 -0.1205
  333EMI    H0F 6321   0.076   3.849   2.368 -1.1648 -0.9137 -1.1665
  333EMI    C0N 6322   0.271   3.843   2.471  0.4814 -0.4173 -0.2394
  333EMI    H0O 6323   0.230   3.842   2.571 -0.5613  2.6711 -0.5287
  333EMI    H0P 6324   0.360   3.781   2.465 -1.0726 -2.7141 -0.6113
  333EMI    H0Q 6325   0.306   3.945   2.456 -0.3298 -0.1727 -0.5070
  333EMI    N02 6326   0.122   3.661   2.383 -0.0953 -0.3828 -0.2359
  333EMI    H0E 6327   0.222   3.810   2.273 -1.2607  0.6655 -0.3755
  334EMI    C01 6328   0.191   3.412   0.197  0.1160  0.4253 -0.3471
  334EMI    C04 6329   0.116   3.216   0.133  0.2350  0.4580 -0.4395
  334EMI    C03 6330   0.082   3.233   0.260  0.1139  0.8858 -0.2970
  334EMI    H07 6331   0.226   3.513   0.188 -1.6749  1.1566  0.4420
  334EMI    H09 6332   0.088   3.135   0.068  2.5516 -1.0294  0.3040
  334EMI    H08 6333   0.014   3.174   0.318 -1.8171 -1.0195 -4.1366
  334EMI    C05 6334   0.095   3.432   0.409  0.3527  0.9569  0.8116
  334EMI    H0B 6335   0.100   3.358   0.487  0.7601 -2.1830 -1.9250
  334EMI    H0C 6336   0.146   3.527   0.406  1.1377  0.6152 -3.3414
  334EMI    H0D 6337  -0.010   3.456   0.408  0.2102  0.3465  0.7725
  334EMI    N00 6338   0.120   3.362   0.289  0.8419 -0.4084  0.2920
  334EMI    C06 6339   0.246   3.351  -0.036  0.0022  0.0790  0.4491
  334EMI    H0F 6340   0.331   3.290  -0.063  0.0779 -0.3391  1.5819
  334EMI    C0N 6341   0.142   3.342  -0.139  0.5191  0.8730  0.0330
  334EMI    H0O 6342   0.172   3.387  -0.233  1.7621  0.2367  0.1049
  334EMI    H0P 6343   0.117   3.237  -0.152 -0.6623  1.2630 -1.0535
  334EMI    H0Q 6344   0.056   3.397  -0.104  0.1341  1.4475 -1.7191
  334EMI    N02 6345   0.193   3.326   0.097  0.4035 -0.5453 -0.6631
  334EMI    H0E 6346   0.287   3.451  -0.036  0.5617 -0.0745 -1.9067
  335EMI    C01 6347   1.645   1.957   1.066  0.4703 -0.8267 -0.0786
  335EMI    C04 6348   1.515   2.111   0.988  0.5080 -0.1494 -0.0372
  335EMI    C03 6349   1.464   2.067   1.104  0.2238 -0.1452 -0.0355
  335EMI    H07 6350   1.720   1.881   1.072  0.3179 -1.2077 -2.2083
  335EMI    H09 6351   1.478   2.186   0.921  0.5818 -0.9103 -0.9557
  335EMI    H08 6352   1.374   2.096   1.154  0.6192 -0.1428  0.6874
  335EMI    C05 6353   1.551   1.920   1.295 -0.7392  0.6936 -0.4531
  335EMI    H0B 6354   1.462   1.861   1.310 -0.1964  0.1581  0.7405
  335EMI    H0C 6355   1.636   1.854   1.285 -0.0246  1.5075  0.0554
  335EMI    H0D 6356   1.573   1.999   1.365 -0.8377 -0.6777  1.2004
  335EMI    N00 6357   1.554   1.979   1.159 -0.0466  0.3522  0.2149
  335EMI    C06 6358   1.721   2.044   0.841  0.2339  0.2093 -0.0554
  335EMI    H0F 6359   1.758   1.944   0.827 -0.4514  0.1381 -1.5340
  335EMI    C0N 6360   1.637   2.067   0.711  0.7275 -0.3911  0.4536
  335EMI    H0O 6361   1.688   2.056   0.616 -1.7412 -1.8764 -0.8096
  335EMI    H0P 6362   1.561   1.989   0.708 -0.6251  0.8272  1.3512
  335EMI    H0Q 6363   1.586   2.163   0.711 -1.0568 -1.2782 -0.1029
  335EMI    N02 6364   1.631   2.040   0.963 -0.0985 -0.0412 -0.0616
  335EMI    H0E 6365   1.799   2.119   0.850 -0.5868  1.0469  0.3187
  336EMI    C01 6366   3.921   3.780   2.505  0.4579  0.4644  0.8187
  336EMI    C04 6367   3.939   3.678   2.312 -0.8743 -0.0304 -0.0946
  336EMI    C03 6368   3.818   3.737   2.326  0.1033 -0.1981  0.3829
  336EMI    H07 6369   3.932   3.827   2.600 -2.1326  2.0586  0.4468
  336EMI    H09 6370   3.975   3.618   2.232 -1.0932 -1.9623  1.1911
  336EMI    H08 6371   3.728   3.739   2.268  0.0633  0.4269  0.4592
  336EMI    C05 6372   3.680   3.856   2.506 -0.0401  0.0675 -0.2775
  336EMI    H0B 6373   3.609   3.776   2.516  0.0851 -0.4304 -2.7207
  336EMI    H0C 6374   3.704   3.889   2.606 -2.0870 -0.7232  0.5158
  336EMI    H0D 6375   3.636   3.929   2.439 -2.7880 -1.7463 -0.6136
  336EMI    N00 6376   3.805   3.799   2.447  0.5887 -0.1487  0.1708
  336EMI    C06 6377   4.153   3.692   2.455  0.0212 -0.1488  0.7287
  336EMI    H0F 6378   4.154   3.594   2.500 -2.9051 -0.7633 -0.3076
  336EMI    C0N 6379   4.235   3.737   2.338 -0.5715 -0.6134  0.3589
  336EMI    H0O 6380   4.337   3.735   2.374 -0.9140 -0.7866  1.3580
  336EMI    H0P 6381   4.220   3.690   2.242 -2.8865  0.3341  0.1753
  336EMI    H0Q 6382   4.212   3.841   2.315 -1.2336 -0.1957  2.6743
  336EMI    N02 6383   4.005   3.716   2.425 -0.5690 -0.4346 -1.0432
  336EMI    H0E 6384   4.173   3.763   2.534  1.5558  1.2709 -0.8400
  337EMI    C01 6385   0.380   3.618   1.632  0.0685  0.1335 -0.4234
  337EMI    C04 6386   0.243   3.737   1.523  0.3820 -0.7980 -0.3162
  337EMI    C03 6387   0.210   3.614   1.505  0.4055 -0.0158 -0.4451
  337EMI    H07 6388   0.466   3.585   1.685  0.7977  0.8066 -1.1595
  337EMI    H09 6389   0.206   3.829   1.483  2.6844 -0.5215 -2.0319
  337EMI    H08 6390   0.123   3.582   1.452 -1.6051  1.2616  1.8530
  337EMI    C05 6391   0.299   3.390   1.563  0.3739 -0.0262  0.0721
  337EMI    H0B 6392   0.317   3.348   1.660  0.6136  0.4830  0.2496
  337EMI    H0C 6393   0.207   3.344   1.529 -1.0782  3.2112 -0.7552
  337EMI    H0D 6394   0.387   3.359   1.508  0.5137  0.6214 -0.0848
  337EMI    N00 6395   0.296   3.538   1.571  0.0207 -0.0271 -0.3358
  337EMI    C06 6396   0.421   3.862   1.645  0.0092 -0.0259 -0.2241
  337EMI    H0F 6397   0.508   3.820   1.693 -0.3558 -0.2812  0.2166
  337EMI    C0N 6398   0.454   3.943   1.530  0.2429 -0.9344  0.8191
  337EMI    H0O 6399   0.514   4.023   1.572 -0.6940 -0.6421  1.6305
  337EMI    H0P 6400   0.507   3.891   1.451  3.8228  0.6412  1.9536
  337EMI    H0Q 6401   0.367   3.991   1.486 -0.6433 -1.2757  2.1329
  337EMI    N02 6402   0.350   3.742   1.603 -0.3072  0.3732 -0.3433
  337EMI    H0E 6403   0.367   3.917   1.721 -0.2324 -1.3558  0.5879
  338EMI    C01 6404   1.014   1.096   4.327  0.4301 -1.0068  0.2001
  338EMI    C04 6405   0.798   1.067   4.302  0.5111 -0.7857 -0.0417
  338EMI    C03 6406   0.826   1.047   4.433 -0.5070 -0.0660  0.5477
  338EMI    H07 6407   1.116   1.121   4.304  0.3059 -2.4214 -2.2332
  338EMI    H09 6408   0.703   1.069   4.252  0.2969  1.8696  0.3276
  338EMI    H08 6409   0.770   1.023   4.520  1.2586  2.0225  2.4046
  338EMI    C05 6410   1.032   1.069   4.569 -0.3164  0.1214  0.4507
  338EMI    H0B 6411   1.002   1.153   4.630  0.5134 -0.0095  1.0648
  338EMI    H0C 6412   1.035   0.971   4.616  0.5411 -0.0701  0.0166
  338EMI    H0D 6413   1.139   1.078   4.555  0.0263 -3.0325  0.2391
  338EMI    N00 6414   0.961   1.078   4.446  0.0423 -0.0756  0.1018
  338EMI    C06 6415   0.921   1.091   4.089 -0.0525 -0.0941  0.0431
  338EMI    H0F 6416   1.024   1.114   4.064  0.5207 -1.8426  0.6248
  338EMI    C0N 6417   0.890   0.953   4.034 -0.2250  0.3138  0.6962
  338EMI    H0O 6418   0.786   0.940   4.006 -0.3142 -0.0103  1.1556
  338EMI    H0P 6419   0.947   0.941   3.942 -1.0800 -2.7572  0.4695
  338EMI    H0Q 6420   0.914   0.871   4.101  2.5465 -0.8886 -1.5591
  338EMI    N02 6421   0.917   1.089   4.235 -1.0316 -0.1418 -0.3827
  338EMI    H0E 6422   0.861   1.177   4.063  0.1698  0.3522  0.9586
  339EMI    C01 6423   1.763   4.180   0.974  0.3019 -0.3822 -0.4164
  339EMI    C04 6424   1.913   4.339   0.980  0.8603  0.0584 -0.4986
  339EMI    C03 6425   1.941   4.255   1.078  0.2030  1.0252 -0.0062
  339EMI    H07 6426   1.671   4.125   0.961  0.1851  0.0034 -1.2741
  339EMI    H09 6427   1.963   4.429   0.953 -0.1059  1.0636  0.8862
  339EMI    H08 6428   2.010   4.263   1.159  1.4416 -1.3034 -0.7555
  339EMI    C05 6429   1.859   4.027   1.149 -0.4456  0.2064  0.4133
  339EMI    H0B 6430   1.839   4.036   1.254  0.3116 -3.0566  0.9182
  339EMI    H0C 6431   1.784   3.960   1.110 -0.8907 -0.0397  1.6650
  339EMI    H0D 6432   1.954   3.978   1.138  0.2939  1.5803  0.5498
  339EMI    N00 6433   1.858   4.148   1.062 -0.2256  0.2749 -0.0414
  339EMI    C06 6434   1.745   4.354   0.791  1.1436 -0.1846 -0.4233
  339EMI    H0F 6435   1.641   4.325   0.784  1.6297 -2.1455  0.1575
  339EMI    C0N 6436   1.738   4.510   0.818  0.0123 -0.3340  0.7629
  339EMI    H0O 6437   1.840   4.548   0.813 -0.8967  2.2104  0.1412
  339EMI    H0P 6438   1.697   4.556   0.729  1.7551 -0.3095 -0.0833
  339EMI    H0Q 6439   1.696   4.544   0.911 -2.2878 -1.4023  0.1700
  339EMI    N02 6440   1.802   4.293   0.909 -0.6069  0.5234 -0.1563
  339EMI    H0E 6441   1.802   4.328   0.703  1.5523  2.2654 -0.9621
  340EMI    C01 6442   2.914   3.878   2.812 -0.1298 -0.1581  0.3552
  340EMI    C04 6443   2.706   3.802   2.791 -0.3934  0.4932  0.1026
  340EMI    C03 6444   2.750   3.840   2.671 -0.3476  0.1052 -0.7438
  340EMI    H07 6445   3.011   3.907   2.845  0.6328 -1.4355 -0.6347
  340EMI    H09 6446   2.612   3.772   2.831 -0.5836 -0.0183 -0.7059
  340EMI    H08 6447   2.696   3.845   2.579 -1.3118 -0.9127 -0.2474
  340EMI    C05 6448   2.967   3.923   2.568 -0.1017  0.4703 -0.7558
  340EMI    H0B 6449   2.932   4.017   2.529  0.0458  0.9172  0.1628
  340EMI    H0C 6450   3.067   3.934   2.606 -0.7332  0.1462  1.1364
  340EMI    H0D 6451   2.976   3.846   2.493 -1.9068 -0.6592  0.0929
  340EMI    N00 6452   2.883   3.882   2.684 -0.2202  0.1945 -0.2265
  340EMI    C06 6453   2.806   3.791   3.020  0.0626 -0.3684  0.3391
  340EMI    H0F 6454   2.907   3.795   3.059 -0.5827  0.3195  2.0108
  340EMI    C0N 6455   2.733   3.896   3.086 -0.2440 -0.4203 -0.2620
  340EMI    H0O 6456   2.726   3.869   3.191 -0.9103 -1.2589 -0.5048
  340EMI    H0P 6457   2.774   3.994   3.066  2.7966 -1.3950  0.5026
  340EMI    H0Q 6458   2.629   3.890   3.057 -0.0094 -1.1622 -1.0022
  340EMI    N02 6459   2.812   3.830   2.877 -0.2462 -0.1861  0.1137
  340EMI    H0E 6460   2.778   3.686   3.024 -0.3180 -0.3192 -0.7101
  341EMI    C01 6461   0.354   2.498   2.432 -0.0227 -0.2452 -0.1278
  341EMI    C04 6462   0.323   2.539   2.218  0.1994  0.5569 -0.3745
  341EMI    C03 6463   0.204   2.530   2.275 -0.4701 -0.3351 -0.2594
  341EMI    H07 6464   0.402   2.471   2.524  0.8813 -0.7642 -0.7505
  341EMI    H09 6465   0.357   2.552   2.117 -0.8733  2.9697 -0.4970
  341EMI    H08 6466   0.110   2.526   2.225 -0.6664  0.4060  0.0328
  341EMI    C05 6467   0.125   2.518   2.517  0.3999  0.7708 -0.4112
  341EMI    H0B 6468   0.026   2.524   2.473 -0.2084  0.5333  0.8747
  341EMI    H0C 6469   0.141   2.427   2.574  2.4162  0.0285 -2.0314
  341EMI    H0D 6470   0.136   2.608   2.575 -0.6634 -0.7496  2.3116
  341EMI    N00 6471   0.223   2.515   2.413 -0.4489 -0.4993  0.3560
  341EMI    C06 6472   0.559   2.478   2.289  0.1835 -0.2456  0.7146
  341EMI    H0F 6473   0.554   2.510   2.186 -0.8008  0.5505  0.9973
  341EMI    C0N 6474   0.676   2.556   2.354 -0.1441 -0.5394 -0.1788
  341EMI    H0O 6475   0.766   2.536   2.296 -0.1253 -0.8796 -0.0358
  341EMI    H0P 6476   0.668   2.664   2.350 -0.0670 -0.5126  0.3204
  341EMI    H0Q 6477   0.689   2.514   2.453  1.5338 -0.0635 -0.1619
  341EMI    N02 6478   0.419   2.511   2.315  0.2981 -0.1291  0.2304
  341EMI    H0E 6479   0.569   2.371   2.286 -0.3975 -0.2900  0.2749
  342EMI    C01 6480   0.707   4.820   4.402  0.0886  1.3141 -0.0579
  342EMI    C04 6481   0.572   4.786   4.565  0.1530 -0.3948  0.1534
  342EMI    C03 6482   0.643   4.677   4.558 -0.1426  0.3469 -0.0439
  342EMI    H07 6483   0.750   4.869   4.317 -0.6335  1.3095 -0.4351
  342EMI    H09 6484   0.501   4.816   4.639 -0.8181  0.7080 -1.1614
  342EMI    H08 6485   0.647   4.591   4.621 -3.1143  0.6761  0.7480
  342EMI    C05 6486   0.812   4.597   4.392 -0.4591  0.4486  0.2253
  342EMI    H0B 6487   0.896   4.583   4.459 -1.1320  1.3406  1.2850
  342EMI    H0C 6488   0.771   4.497   4.395 -0.4217  0.4129 -0.3419
  342EMI    H0D 6489   0.835   4.616   4.288 -1.1266 -1.4186 -0.3191
  342EMI    N00 6490   0.718   4.693   4.444  0.1691  0.6777 -0.0668
  342EMI    C06 6491   0.582   5.027   4.460 -0.3455 -0.2858  0.2431
  342EMI    H0F 6492   0.504   5.044   4.387 -0.4492 -2.2642 -0.1753
  342EMI    C0N 6493   0.538   5.087   4.586  0.3208 -0.0508 -0.6707
  342EMI    H0O 6494   0.436   5.062   4.613  1.1996 -1.4355  1.7156
  342EMI    H0P 6495   0.605   5.053   4.664 -1.3977 -0.3467  0.7449
  342EMI    H0Q 6496   0.550   5.194   4.586 -1.7187  0.2438  0.4040
  342EMI    N02 6497   0.616   4.877   4.470 -0.0209 -0.0352 -0.4799
  342EMI    H0E 6498   0.677   5.071   4.432  0.6466 -2.3419  0.1873
  343EMI    C01 6499   1.469   1.579   4.485 -0.2193  0.5740  0.1954
  343EMI    C04 6500   1.407   1.375   4.550  0.0047  1.0901 -0.6721
  343EMI    C03 6501   1.365   1.391   4.424  0.1616  0.2106  0.2144
  343EMI    H07 6502   1.509   1.677   4.474  0.5131  0.1241 -1.4602
  343EMI    H09 6503   1.404   1.290   4.614  3.4782  1.5232  0.3041
  343EMI    H08 6504   1.300   1.325   4.370 -1.2949  2.6863 -1.2585
  343EMI    C05 6505   1.354   1.589   4.267  0.4177  0.3680  0.0288
  343EMI    H0B 6506   1.269   1.651   4.293 -0.3582 -0.4746 -0.4194
  343EMI    H0C 6507   1.436   1.648   4.229  2.1941 -0.2258  2.7075
  343EMI    H0D 6508   1.321   1.512   4.199  0.6783  0.2306  0.0619
  343EMI    N00 6509   1.401   1.524   4.387  0.0991  0.2319 -0.3996
  343EMI    C06 6510   1.557   1.501   4.706  0.3176 -0.4197  0.1441
  343EMI    H0F 6511   1.610   1.410   4.726 -0.7899 -1.4357 -1.3144
  343EMI    C0N 6512   1.674   1.602   4.698  0.0818 -0.8207 -0.2756
  343EMI    H0O 6513   1.733   1.592   4.787 -0.8718  0.3491  0.5309
  343EMI    H0P 6514   1.730   1.595   4.605  3.2549  0.9790  1.3201
  343EMI    H0Q 6515   1.642   1.706   4.702  2.2355 -0.1521  2.1109
  343EMI    N02 6516   1.479   1.488   4.582 -0.1633  0.4830 -0.3769
  343EMI    H0E 6517   1.493   1.513   4.792  1.5125 -2.2156  1.3460
  344EMI    C01 6518   4.814   4.699   1.163  0.1098  0.3048  0.1047
  344EMI    C04 6519   5.018   4.633   1.147 -0.4272  0.3318  0.5635
  344EMI    C03 6520   5.004   4.702   1.258  0.2112  0.7336  0.1261
  344EMI    H07 6521   4.712   4.717   1.134 -0.4911  1.4218  2.6161
  344EMI    H09 6522   5.105   4.579   1.118 -1.4974 -1.9543  1.3515
  344EMI    H08 6523   5.077   4.723   1.334  2.8782 -2.4709 -1.2664
  344EMI    C05 6524   4.817   4.821   1.367  0.2686 -0.1485  0.4044
  344EMI    H0B 6525   4.732   4.874   1.327 -1.5269 -2.4752  0.9205
  344EMI    H0C 6526   4.781   4.738   1.427  2.4734  0.5873  2.9369
  344EMI    H0D 6527   4.876   4.885   1.430 -1.8389  2.3794 -0.0094
  344EMI    N00 6528   4.879   4.752   1.260 -0.2881  0.7795  0.6032
  344EMI    C06 6529   4.863   4.523   0.982 -0.5316 -0.4483  0.4462
  344EMI    H0F 6530   4.760   4.545   0.957  0.0555 -0.8144 -2.7559
  344EMI    C0N 6531   4.957   4.548   0.866  0.6564 -0.5561  0.2628
  344EMI    H0O 6532   4.960   4.656   0.851 -2.0853 -0.3764  0.5173
  344EMI    H0P 6533   5.055   4.507   0.888  0.4040 -0.9268  0.6910
  344EMI    H0Q 6534   4.920   4.498   0.777  1.2651 -0.6305  0.0486
  344EMI    N02 6535   4.897   4.621   1.093  0.2320  0.7485 -0.4470
  344EMI    H0E 6536   4.864   4.423   1.023  0.1267 -1.2706 -1.4581
  345EMI    C01 6537   2.198   3.561   1.336 -0.7856 -0.0772 -0.1351
  345EMI    C04 6538   2.207   3.771   1.295  0.1143 -0.0581  0.5326
  345EMI    C03 6539   2.079   3.740   1.300  0.0113 -0.4465  0.2527
  345EMI    H07 6540   2.223   3.460   1.361 -0.3687 -0.2129 -1.0635
  345EMI    H09 6541   2.258   3.865   1.289  0.6733 -0.4131 -0.6699
  345EMI    H08 6542   1.995   3.806   1.294 -0.8602 -1.6250 -1.3337
  345EMI    C05 6543   1.955   3.528   1.342 -0.4168 -0.3354  0.5725
  345EMI    H0B 6544   1.977   3.422   1.346  1.1216 -0.0162  0.9602
  345EMI    H0C 6545   1.912   3.557   1.437  1.3119  2.0846  0.6976
  345EMI    H0D 6546   1.891   3.551   1.258 -0.3443 -1.4723  0.1935
  345EMI    N00 6547   2.074   3.609   1.333  0.4119  0.2677 -0.1988
  345EMI    C06 6548   2.437   3.665   1.336  0.0670 -0.2405 -1.0444
  345EMI    H0F 6549   2.473   3.734   1.261  0.6716  1.8776  1.0869
  345EMI    C0N 6550   2.486   3.708   1.478  0.1171  0.5281 -0.4758
  345EMI    H0O 6551   2.437   3.794   1.521 -1.7980 -0.5611 -0.3403
  345EMI    H0P 6552   2.469   3.623   1.544  1.1671  2.2205  2.1127
  345EMI    H0Q 6553   2.594   3.707   1.476  0.1471 -0.9679  0.0357
  345EMI    N02 6554   2.286   3.666   1.324  0.0333  0.2210  0.3677
  345EMI    H0E 6555   2.475   3.568   1.307 -0.6402 -1.2633  1.2099
  346EMI    C01 6556   4.190   0.856   4.524  0.6180 -0.3182 -0.9356
  346EMI    C04 6557   4.210   0.707   4.677 -0.0053  0.1164  0.3666
  346EMI    C03 6558   4.297   0.803   4.713  0.1016 -0.0840 -0.3693
  346EMI    H07 6559   4.150   0.909   4.440 -1.3900 -1.6195 -0.8870
  346EMI    H09 6560   4.190   0.611   4.721 -0.9435  0.0653 -0.1524
  346EMI    H08 6561   4.361   0.813   4.799  1.2111 -2.2569 -0.8895
  346EMI    C05 6562   4.327   1.038   4.609 -0.4933 -0.2260 -0.1220
  346EMI    H0B 6563   4.394   1.050   4.525  1.0977  2.8297  1.3823
  346EMI    H0C 6564   4.238   1.092   4.580 -0.7628 -0.7196 -0.2158
  346EMI    H0D 6565   4.365   1.066   4.706  0.6555 -0.3474 -0.5239
  346EMI    N00 6566   4.285   0.898   4.609  0.2278 -0.7564  0.2493
  346EMI    C06 6567   4.060   0.655   4.478  0.7881  0.8106  0.2336
  346EMI    H0F 6568   3.960   0.670   4.517  0.7621  0.8747  0.1426
  346EMI    C0N 6569   4.067   0.671   4.326  0.2771 -0.6340  0.3150
  346EMI    H0O 6570   4.169   0.680   4.291 -0.4454  2.0011 -1.4269
  346EMI    H0P 6571   4.026   0.580   4.283 -1.3358  0.6159 -0.9525
  346EMI    H0Q 6572   4.000   0.750   4.294  0.3530  0.0495  1.7777
  346EMI    N02 6573   4.146   0.736   4.554 -0.0734  0.1998  0.4509
  346EMI    H0E 6574   4.074   0.551   4.505  0.7070 -0.2663 -3.3676
  347EMI    C01 6575   2.231   3.389   4.932 -0.1465 -0.3489 -0.2759
  347EMI    C04 6576   2.247   3.584   4.839 -0.7040 -0.2502  0.1829
  347EMI    C03 6577   2.372   3.532   4.848 -0.0927  0.1561  0.1580
  347EMI    H07 6578   2.189   3.298   4.968  0.0915 -0.5661 -0.5421
  347EMI    H09 6579   2.214   3.671   4.787 -1.6655 -1.1947 -0.8189
  347EMI    H08 6580   2.465   3.572   4.813  0.2290  1.7001  2.5277
  347EMI    C05 6581   2.475   3.332   4.953 -0.4619 -0.0796  0.2261
  347EMI    H0B 6582   2.497   3.328   5.059  2.2193  0.0031 -0.2366
  347EMI    H0C 6583   2.457   3.232   4.916 -0.1954 -0.9541  2.2772
  347EMI    H0D 6584   2.570   3.372   4.922 -0.6284  1.0378  1.0995
  347EMI    N00 6585   2.359   3.416   4.917 -0.1826 -0.2644 -0.0939
  347EMI    C06 6586   2.010   3.504   4.885 -0.2474 -0.1963 -0.2206
  347EMI    H0F 6587   1.982   3.454   4.977  1.5820  2.1088  1.7313
  347EMI    C0N 6588   1.958   3.646   4.908 -0.4258  0.5127  0.6429
  347EMI    H0O 6589   2.027   3.687   4.981  1.2388  2.2917 -1.7566
  347EMI    H0P 6590   1.976   3.705   4.819  1.7614  0.5768  1.0736
  347EMI    H0Q 6591   1.854   3.645   4.939 -0.9571  0.4736 -1.0033
  347EMI    N02 6592   2.163   3.485   4.877 -0.0561  0.1808 -0.5318
  347EMI    H0E 6593   1.951   3.467   4.803 -0.5595  2.4639 -1.2933
  348EMI    C01 6594   3.981   0.542   2.747 -0.3304 -0.5248  0.5500
  348EMI    C04 6595   3.982   0.564   2.531  0.2366 -0.2896  0.3365
  348EMI    C03 6596   4.042   0.449   2.555 -0.4736  0.3408  0.4887
  348EMI    H07 6597   3.959   0.556   2.850 -2.1836  0.9938  0.0160
  348EMI    H09 6598   3.958   0.610   2.437  0.3777 -0.2157  0.3370
  348EMI    H08 6599   4.076   0.378   2.483 -0.4444  1.9200 -1.1194
  348EMI    C05 6600   4.095   0.318   2.768 -0.1475 -0.0794 -0.7358
  348EMI    H0B 6601   4.066   0.220   2.733  0.4475 -1.8491  3.1618
  348EMI    H0C 6602   4.203   0.312   2.767 -0.1369 -2.7473  2.0101
  348EMI    H0D 6603   4.072   0.335   2.872 -1.0218  1.1997 -1.1229
  348EMI    N00 6604   4.039   0.433   2.694  0.2203  0.2527 -0.1633
  348EMI    C06 6605   3.916   0.767   2.665  0.0055 -0.5111  0.0791
  348EMI    H0F 6606   3.833   0.777   2.733  0.1694  0.9068  0.0885
  348EMI    C0N 6607   4.031   0.855   2.717  0.1263 -0.0499 -1.0992
  348EMI    H0O 6608   4.041   0.847   2.825  2.1059 -0.7251 -1.2840
  348EMI    H0P 6609   4.117   0.800   2.680 -0.8911 -2.6937  0.2054
  348EMI    H0Q 6610   4.023   0.959   2.688  1.2412  0.3899  0.0344
  348EMI    N02 6611   3.960   0.628   2.651 -0.2225 -0.9815  0.0622
  348EMI    H0E 6612   3.891   0.807   2.568  0.7875  0.9189  0.4376
  349EMI    C01 6613   3.728   3.941   0.827 -0.4232  0.3405  0.6958
  349EMI    C04 6614   3.843   3.769   0.751 -0.7587 -0.3343  0.4754
  349EMI    C03 6615   3.864   3.781   0.884  0.0624  0.7391 -0.0779
  349EMI    H07 6616   3.670   4.031   0.828  1.2382  1.5228 -1.2898
  349EMI    H09 6617   3.888   3.702   0.681 -1.5142  1.2186 -1.5668
  349EMI    H08 6618   3.937   3.733   0.946 -1.3151 -0.4837  0.6790
  349EMI    C05 6619   3.770   3.927   1.073  0.3742  0.2327 -0.2567
  349EMI    H0B 6620   3.864   3.964   1.111  0.7673 -0.9678 -0.0216
  349EMI    H0C 6621   3.697   4.005   1.086 -0.1746 -0.2171 -0.6309
  349EMI    H0D 6622   3.739   3.850   1.141  0.3367  1.2472  0.9012
  349EMI    N00 6623   3.782   3.882   0.933  0.5707  0.0910  0.3245
  349EMI    C06 6624   3.698   3.901   0.587  0.4601  0.4380 -0.1997
  349EMI    H0F 6625   3.597   3.938   0.602 -0.9841 -2.2316 -2.2678
  349EMI    C0N 6626   3.798   3.977   0.511  0.0039 -0.0015  0.0287
  349EMI    H0O 6627   3.885   3.917   0.488 -0.9005 -0.5866 -2.0541
  349EMI    H0P 6628   3.769   4.022   0.417 -0.0584  0.6719  0.3607
  349EMI    H0Q 6629   3.846   4.060   0.563  2.2607 -0.9533 -0.4151
  349EMI    N02 6630   3.760   3.871   0.718  0.9089 -0.0323  0.4863
  349EMI    H0E 6631   3.686   3.804   0.541 -0.5954  0.5032 -0.0953
  350EMI    C01 6632   4.486   3.723   4.083 -0.4197  0.8071  0.3332
  350EMI    C04 6633   4.648   3.865   4.073  0.0487  0.0228 -0.0767
  350EMI    C03 6634   4.702   3.741   4.062  0.4360  0.5741 -0.3176
  350EMI    H07 6635   4.383   3.694   4.083 -1.1285  3.1108  0.9909
  350EMI    H09 6636   4.687   3.964   4.073 -2.1370  0.9653 -1.4045
  350EMI    H08 6637   4.806   3.718   4.051  0.7036  1.5643  0.0809
  350EMI    C05 6638   4.600   3.499   4.078  0.6762  0.4603 -0.2973
  350EMI    H0B 6639   4.701   3.462   4.080  0.4100 -0.3774 -1.3312
  350EMI    H0C 6640   4.552   3.480   4.173  0.3254 -2.3842 -0.9564
  350EMI    H0D 6641   4.551   3.461   3.989 -0.3079  0.9537  0.0085
  350EMI    N00 6642   4.597   3.645   4.072 -0.1594 -0.4788 -0.6772
  350EMI    C06 6643   4.427   3.957   4.153  0.2466  0.3450 -0.6538
  350EMI    H0F 6644   4.336   3.944   4.097  0.7661 -0.9692 -1.2495
  350EMI    C0N 6645   4.419   3.966   4.307  0.2148 -0.1173 -0.2410
  350EMI    H0O 6646   4.388   3.872   4.350  1.8467 -0.3550  0.4514
  350EMI    H0P 6647   4.514   3.990   4.354  0.1732  2.5855 -1.3330
  350EMI    H0Q 6648   4.349   4.043   4.337  0.3870 -1.0840  3.0369
  350EMI    N02 6649   4.520   3.850   4.108  0.2265  0.6409  0.0146
  350EMI    H0E 6650   4.481   4.043   4.117 -0.8925  1.9847  1.3810
  351EMI    C01 6651   2.007   4.858   1.600 -0.6275 -0.5087  0.2922
  351EMI    C04 6652   1.917   5.036   1.684 -0.2829  0.1797  0.4284
  351EMI    C03 6653   2.014   4.993   1.769 -0.2453  0.7763 -0.1095
  351EMI    H07 6654   2.013   4.775   1.532  1.9698  0.8859 -1.3477
  351EMI    H09 6655   1.859   5.126   1.683  1.6397  1.4781 -0.4686
  351EMI    H08 6656   2.056   5.030   1.860  1.0916 -1.0065  0.0488
  351EMI    C05 6657   2.192   4.811   1.761  0.8264 -0.6957 -0.5594
  351EMI    H0B 6658   2.249   4.859   1.838  0.0339 -0.1629 -0.2973
  351EMI    H0C 6659   2.173   4.709   1.791  0.3695  0.3079  3.0155
  351EMI    H0D 6660   2.247   4.805   1.668  1.3704 -0.2920 -0.2661
  351EMI    N00 6661   2.074   4.883   1.712  0.4401 -0.2751 -0.5878
  351EMI    C06 6662   1.818   4.961   1.472 -0.2320 -0.1645  0.0522
  351EMI    H0F 6663   1.789   5.065   1.464  0.2850 -0.0669 -0.6156
  351EMI    C0N 6664   1.875   4.910   1.346 -0.0565  0.5476 -0.0615
  351EMI    H0O 6665   1.949   4.972   1.298  0.6494 -0.0397  0.2501
  351EMI    H0P 6666   1.900   4.805   1.337 -3.1761 -0.2403 -0.7792
  351EMI    H0Q 6667   1.793   4.906   1.275  1.3382  0.3711 -1.7255
  351EMI    N02 6668   1.923   4.957   1.576  0.2723  0.4049  0.0022
  351EMI    H0E 6669   1.735   4.897   1.498 -2.0619  1.1149 -2.1700
  352EMI    C01 6670   3.682   0.953   4.770  0.0247  0.2981  0.6464
  352EMI    C04 6671   3.621   1.005   4.975 -0.4701  0.0224 -0.0812
  352EMI    C03 6672   3.738   0.951   4.980 -0.4290 -0.4018  0.3237
  352EMI    H07 6673   3.681   0.949   4.663 -2.3080 -2.4839  0.6288
  352EMI    H09 6674   3.561   1.060   5.044 -0.8598 -1.5775  0.9037
  352EMI    H08 6675   3.798   0.953   5.068 -1.5698  1.1914  1.1147
  352EMI    C05 6676   3.906   0.854   4.822  0.3073 -0.3924 -0.3559
  352EMI    H0B 6677   3.990   0.905   4.867  0.1468 -0.2197 -0.2535
  352EMI    H0C 6678   3.903   0.755   4.866 -1.4716  0.5271  1.7544
  352EMI    H0D 6679   3.913   0.856   4.714  0.7671 -0.1169 -0.3243
  352EMI    N00 6680   3.778   0.914   4.850  0.0845 -0.2982  0.2280
  352EMI    C06 6681   3.462   1.061   4.799 -0.0630  0.2841 -0.1647
  352EMI    H0F 6682   3.483   1.166   4.812  0.1037  0.5001 -1.9387
  352EMI    C0N 6683   3.433   1.044   4.653  0.0619 -0.5757  0.4814
  352EMI    H0O 6684   3.446   0.941   4.621  0.2455 -0.0805 -1.1401
  352EMI    H0P 6685   3.331   1.058   4.619  1.1377  1.1086 -2.4892
  352EMI    H0Q 6686   3.513   1.097   4.603  0.7480 -1.6466  0.4108
  352EMI    N02 6687   3.584   0.998   4.848 -0.0593 -0.4579  0.4800
  352EMI    H0E 6688   3.376   1.035   4.858  1.4312 -2.3831  1.0473
  353EMI    C01 6689   4.396   3.644   3.651 -0.6525  0.0706 -0.0693
  353EMI    C04 6690   4.414   3.831   3.757 -0.2011  0.2418  1.3094
  353EMI    C03 6691   4.535   3.782   3.740  0.4004 -0.0960  0.2324
  353EMI    H07 6692   4.356   3.561   3.596  1.8475 -0.8695 -0.5799
  353EMI    H09 6693   4.381   3.919   3.808 -1.2919  0.3815  0.4122
  353EMI    H08 6694   4.628   3.824   3.771  1.9060 -0.4338 -3.2774
  353EMI    C05 6695   4.642   3.575   3.643  0.1880 -0.3359  0.4843
  353EMI    H0B 6696   4.607   3.495   3.580  2.4821 -0.2617 -1.0264
  353EMI    H0C 6697   4.720   3.629   3.590  1.9064 -0.9891  2.2105
  353EMI    H0D 6698   4.687   3.534   3.733 -2.0869  0.5291  2.0923
  353EMI    N00 6699   4.525   3.665   3.667  0.3065  0.9648 -0.2638
  353EMI    C06 6700   4.185   3.754   3.684 -0.3549 -0.0549  0.5103
  353EMI    H0F 6701   4.166   3.860   3.693 -0.3922 -0.1735  2.2228
  353EMI    C0N 6702   4.148   3.695   3.548  0.1149 -0.1513  1.6014
  353EMI    H0O 6703   4.184   3.758   3.467  0.3779 -0.1984  1.6801
  353EMI    H0P 6704   4.169   3.588   3.545  2.1376  0.2078  1.5462
  353EMI    H0Q 6705   4.040   3.696   3.544  0.1321  0.8021 -1.5737
  353EMI    N02 6706   4.329   3.741   3.705  0.5670 -0.4404  0.2304
  353EMI    H0E 6707   4.131   3.712   3.768 -0.8800 -0.5515 -0.0697
  354EMI    C01 6708   4.772   3.275   4.401  0.6774  0.6427 -1.0121
  354EMI    C04 6709   4.754   3.059   4.411  0.5971 -0.4983  0.4634
  354EMI    C03 6710   4.763   3.099   4.537  0.6128  0.0371  0.1357
  354EMI    H07 6711   4.760   3.373   4.361 -0.9761 -0.0373 -2.3439
  354EMI    H09 6712   4.740   2.960   4.372 -2.6233 -1.4692  3.5709
  354EMI    H08 6713   4.769   3.050   4.631  1.7522 -1.8490 -0.8665
  354EMI    C05 6714   4.789   3.341   4.636  0.3066  0.2015 -0.2038
  354EMI    H0B 6715   4.728   3.320   4.722 -0.5648 -0.3736 -0.9427
  354EMI    H0C 6716   4.888   3.357   4.677 -0.4964  4.7780  0.5627
  354EMI    H0D 6717   4.768   3.442   4.604  0.6087  1.1051  2.2557
  354EMI    N00 6718   4.772   3.242   4.528 -0.5682 -0.3139 -0.0805
  354EMI    C06 6719   4.779   3.163   4.180 -0.4354 -0.2051  0.5952
  354EMI    H0F 6720   4.862   3.100   4.153 -0.8079 -0.9391  1.1218
  354EMI    C0N 6721   4.650   3.115   4.129  0.0733 -0.7813 -0.1038
  354EMI    H0O 6722   4.658   3.112   4.021 -0.0017  1.0932 -0.1828
  354EMI    H0P 6723   4.631   3.015   4.167  1.8521 -0.7854  0.8736
  354EMI    H0Q 6724   4.566   3.178   4.154 -0.8956 -1.0728 -2.3799
  354EMI    N02 6725   4.763   3.170   4.327  0.1378  0.0111  0.6086
  354EMI    H0E 6726   4.785   3.261   4.134 -0.0258 -1.5684 -2.4904
  355EMI    C01 6727   1.777   4.741   0.394 -0.4927 -0.4479 -0.1533
  355EMI    C04 6728   1.803   4.938   0.482 -0.3289  0.2552 -0.4698
  355EMI    C03 6729   1.683   4.929   0.442  0.3972 -0.2883  0.4981
  355EMI    H07 6730   1.793   4.646   0.349 -0.2259 -0.3653 -0.2371
  355EMI    H09 6731   1.846   5.015   0.541 -0.3093  1.2023 -1.6721
  355EMI    H08 6732   1.606   5.002   0.450  0.0786 -0.3940 -1.2499
  355EMI    C05 6733   1.535   4.745   0.334  0.4338 -0.2723  0.1308
  355EMI    H0B 6734   1.528   4.781   0.232  1.8392  0.4954  0.2796
  355EMI    H0C 6735   1.525   4.638   0.332  0.5422 -0.3043  0.9998
  355EMI    H0D 6736   1.458   4.783   0.400  0.5801  0.1824  0.0483
  355EMI    N00 6737   1.661   4.802   0.387 -0.4081  0.2295  0.2011
  355EMI    C06 6738   2.017   4.801   0.440  0.0611  0.1403 -0.0780
  355EMI    H0F 6739   2.065   4.896   0.419 -0.8461  0.8047  0.7811
  355EMI    C0N 6740   2.062   4.720   0.559 -0.4961  0.4952 -0.5616
  355EMI    H0O 6741   2.030   4.762   0.653  1.4792 -0.0309  0.3974
  355EMI    H0P 6742   2.029   4.617   0.558 -1.4336  0.6638  2.7033
  355EMI    H0Q 6743   2.170   4.724   0.550 -0.4636  0.1683 -0.3423
  355EMI    N02 6744   1.871   4.824   0.445 -0.1222  0.1474  0.3903
  355EMI    H0E 6745   2.046   4.749   0.350 -1.1857 -1.6725  0.5257
  356EMI    C01 6746   0.904   4.869   0.006 -0.6526  0.5419  0.1237
  356EMI    C04 6747   0.693   4.924   0.005  0.0993 -0.4278  0.6740
  356EMI    C03 6748   0.756   5.002   0.093 -0.3288 -0.2519  0.0909
  356EMI    H07 6749   0.997   4.821  -0.015 -0.0861  1.3612  0.6636
  356EMI    H09 6750   0.591   4.931  -0.027  0.4021 -1.7107 -0.6913
  356EMI    H08 6751   0.709   5.081   0.147  0.3108 -0.5067  1.0433
  356EMI    C05 6752   1.002   5.037   0.160  0.0914  0.2430  0.1169
  356EMI    H0B 6753   0.964   5.071   0.255 -1.6021  1.1255 -0.8288
  356EMI    H0C 6754   1.085   4.970   0.178 -0.6494 -1.1152 -1.2465
  356EMI    H0D 6755   1.038   5.119   0.100  1.1082 -0.1474  0.1745
  356EMI    N00 6756   0.891   4.965   0.093 -0.1681 -0.7722 -0.1883
  356EMI    C06 6757   0.755   4.748  -0.165  0.4160 -0.4174 -0.0808
  356EMI    H0F 6758   0.705   4.807  -0.240  2.0596  0.3474 -0.6402
  356EMI    C0N 6759   0.880   4.698  -0.240 -0.1043 -0.0363 -0.3572
  356EMI    H0O 6760   0.952   4.658  -0.169  0.0682 -1.0339 -1.0745
  356EMI    H0P 6761   0.852   4.615  -0.304  2.1276  0.0158 -1.5238
  356EMI    H0Q 6762   0.931   4.769  -0.305  0.4249  0.1720  0.2802
  356EMI    N02 6763   0.788   4.847  -0.053  0.8266  0.4657 -0.5103
  356EMI    H0E 6764   0.700   4.660  -0.136 -1.0590 -0.1374 -1.8258
  357EMI    C01 6765   0.329   3.123   0.877 -0.4190  1.2786 -0.2976
  357EMI    C04 6766   0.238   3.103   0.685  0.1343 -0.7310 -0.1179
  357EMI    C03 6767   0.365   3.061   0.675  0.2567 -0.2162  0.9051
  357EMI    H07 6768   0.347   3.148   0.979  0.3005 -1.2990  0.2755
  357EMI    H09 6769   0.156   3.115   0.619 -1.5996 -2.1696  1.6438
  357EMI    H08 6770   0.417   3.025   0.589 -1.0696  0.3688 -0.1726
  357EMI    C05 6771   0.554   3.012   0.833  0.1974 -0.6766 -0.3807
  357EMI    H0B 6772   0.528   2.908   0.845 -2.5729 -0.0390 -0.1152
  357EMI    H0C 6773   0.623   3.027   0.751  0.0012  2.1179 -0.1437
  357EMI    H0D 6774   0.591   3.059   0.923  1.0243 -2.3171  0.1883
  357EMI    N00 6775   0.417   3.058   0.800 -0.0996 -0.2409 -0.1814
  357EMI    C06 6776   0.126   3.244   0.852 -0.1991 -0.2859  0.1581
  357EMI    H0F 6777   0.030   3.197   0.835  1.0973 -2.6047 -1.3383
  357EMI    C0N 6778   0.107   3.274   0.996 -0.9539 -0.6843 -0.4200
  357EMI    H0O 6779   0.100   3.185   1.057 -2.2330  0.2723  0.8950
  357EMI    H0P 6780   0.185   3.338   1.037 -1.1713 -1.0535  0.5988
  357EMI    H0Q 6781   0.011   3.315   1.023 -0.4515 -0.6222  1.4379
  357EMI    N02 6782   0.233   3.166   0.805  0.1983 -0.1866 -0.3820
  357EMI    H0E 6783   0.137   3.334   0.794  2.2892  0.5522  1.8013
  358EMI    C01 6784   4.585   4.918   2.418 -0.7811  0.1739 -0.0857
  358EMI    C04 6785   4.640   4.717   2.479 -0.7379  0.8875 -0.1093
  358EMI    C03 6786   4.589   4.775   2.587 -0.3059  0.6378 -0.0555
  358EMI    H07 6787   4.578   5.005   2.355 -2.3273  0.2452  0.1523
  358EMI    H09 6788   4.686   4.620   2.475 -1.5833  0.3493  1.8950
  358EMI    H08 6789   4.589   4.744   2.690 -2.6277 -0.5881 -0.3623
  358EMI    C05 6790   4.482   4.997   2.628 -0.1895 -0.1452 -0.0237
  358EMI    H0B 6791   4.503   4.965   2.729  0.1624 -2.2781 -0.7152
  358EMI    H0C 6792   4.542   5.085   2.608 -0.2180  0.1191  0.9885
  358EMI    H0D 6793   4.374   5.004   2.631 -0.4636 -2.1199 -2.3534
  358EMI    N00 6794   4.544   4.897   2.540  0.2805 -0.0384 -0.4153
  358EMI    C06 6795   4.691   4.785   2.244  0.1624 -0.0734  0.8017
  358EMI    H0F 6796   4.651   4.867   2.188  1.1264  0.6127  1.0905
  358EMI    C0N 6797   4.845   4.794   2.252 -0.4034  0.3804 -0.2220
  358EMI    H0O 6798   4.872   4.897   2.271  2.0147 -0.4612  1.2339
  358EMI    H0P 6799   4.884   4.738   2.336 -0.4025  1.5074  0.5536
  358EMI    H0Q 6800   4.883   4.751   2.161 -0.6617  1.2315 -0.7466
  358EMI    N02 6801   4.637   4.806   2.377 -0.0690  0.5213  0.1689
  358EMI    H0E 6802   4.650   4.697   2.196  2.1172 -0.0637 -1.0316
  359EMI    C01 6803   3.460   4.760   4.069  0.8012 -0.1150 -0.5041
  359EMI    C04 6804   3.259   4.699   4.128  0.3167  1.0909 -0.1070
  359EMI    C03 6805   3.340   4.688   4.233  0.2739 -0.0654 -0.1864
  359EMI    H07 6806   3.546   4.784   4.010  1.0593  0.5851  0.1389
  359EMI    H09 6807   3.152   4.689   4.127  0.3466  0.6950 -1.1475
  359EMI    H08 6808   3.323   4.647   4.331 -0.6794 -2.2712 -1.2069
  359EMI    C05 6809   3.585   4.745   4.287  0.0070  0.1085  0.4615
  359EMI    H0B 6810   3.606   4.850   4.299 -0.0310 -0.0363  2.1286
  359EMI    H0C 6811   3.554   4.690   4.375 -3.0585 -0.8713 -1.1023
  359EMI    H0D 6812   3.664   4.692   4.236  0.6399  0.3650  1.1384
  359EMI    N00 6813   3.468   4.732   4.198  0.6259  0.0643  0.3244
  359EMI    C06 6814   3.281   4.768   3.890 -0.2871  0.0591 -0.0241
  359EMI    H0F 6815   3.204   4.692   3.882  0.6858 -0.9788  0.1927
  359EMI    C0N 6816   3.225   4.903   3.871  0.3000  0.2168  0.2315
  359EMI    H0O 6817   3.290   4.979   3.912  1.8129  0.0725 -1.7688
  359EMI    H0P 6818   3.210   4.919   3.765  0.3951 -0.8059  0.0598
  359EMI    H0Q 6819   3.126   4.912   3.916 -0.2043 -2.0861 -0.3166
  359EMI    N02 6820   3.339   4.740   4.023  0.2479 -0.7434 -0.1244
  359EMI    H0E 6821   3.347   4.730   3.813 -2.4640 -1.7491 -1.1076
  360EMI    C01 6822   1.417   1.626   0.880 -0.7356 -0.7085 -0.5079
  360EMI    C04 6823   1.276   1.782   0.826 -0.3316  0.0387  0.6526
  360EMI    C03 6824   1.250   1.740   0.953 -0.1441 -0.5262  0.9336
  360EMI    H07 6825   1.501   1.559   0.882  1.1546  1.4850 -1.5611
  360EMI    H09 6826   1.222   1.849   0.763  1.2801 -1.7506 -2.8975
  360EMI    H08 6827   1.174   1.772   1.020  0.2277  2.4029  0.0887
  360EMI    C05 6828   1.323   1.546   1.099 -0.4381  0.1821  0.0672
  360EMI    H0B 6829   1.368   1.605   1.178 -0.6286 -0.3798  0.5972
  360EMI    H0C 6830   1.221   1.534   1.132  0.3499 -0.8002  2.3550
  360EMI    H0D 6831   1.396   1.467   1.094  0.8522  1.3611 -0.4418
  360EMI    N00 6832   1.330   1.634   0.980 -0.1895 -0.4388  0.8120
  360EMI    C06 6833   1.455   1.716   0.652 -0.3430 -0.0023 -0.6941
  360EMI    H0F 6834   1.466   1.820   0.622 -2.1416 -0.0772 -1.7564
  360EMI    C0N 6835   1.595   1.683   0.678 -0.2088 -0.4797 -0.6921
  360EMI    H0O 6836   1.658   1.706   0.592  3.0289 -0.8002  1.4080
  360EMI    H0P 6837   1.624   1.741   0.766  0.0036 -0.8867 -0.4925
  360EMI    H0Q 6838   1.616   1.579   0.699  1.8202  0.2995  1.7273
  360EMI    N02 6839   1.385   1.712   0.784  0.4210  0.0996  1.0536
  360EMI    H0E 6840   1.413   1.648   0.580  2.4298 -2.1074 -0.4556
  361EMI    C01 6841   0.643   3.312   0.603 -0.1748  0.2616  0.3880
  361EMI    C04 6842   0.445   3.377   0.562  0.0938 -0.7315  0.4769
  361EMI    C03 6843   0.472   3.281   0.473  0.6358  0.9143 -0.1784
  361EMI    H07 6844   0.743   3.312   0.642 -0.2520  2.7171  0.7447
  361EMI    H09 6845   0.354   3.431   0.577 -0.5191 -1.5456 -0.1446
  361EMI    H08 6846   0.409   3.239   0.397 -0.4198 -0.3337  1.3352
  361EMI    C05 6847   0.670   3.132   0.426 -0.7900  0.0185 -0.2292
  361EMI    H0B 6848   0.693   3.178   0.331 -0.5618  0.2643 -0.0555
  361EMI    H0C 6849   0.774   3.121   0.452  0.4955  0.8148 -4.3562
  361EMI    H0D 6850   0.613   3.042   0.408 -1.1027 -0.7369  3.5715
  361EMI    N00 6851   0.598   3.235   0.506  0.0317 -0.0391  0.4317
  361EMI    C06 6852   0.550   3.485   0.762  0.2521 -0.0938  0.1435
  361EMI    H0F 6853   0.467   3.551   0.744  1.4179  1.1619 -0.8656
  361EMI    C0N 6854   0.530   3.411   0.886  0.0778  0.5764  0.0825
  361EMI    H0O 6855   0.613   3.342   0.897  0.0346  0.6554  0.9593
  361EMI    H0P 6856   0.518   3.490   0.960  0.4064 -1.0582  1.9588
  361EMI    H0Q 6857   0.439   3.352   0.889 -0.9177  1.5476 -3.9700
  361EMI    N02 6858   0.552   3.394   0.644  0.5226  0.0953  0.3462
  361EMI    H0E 6859   0.638   3.547   0.765 -0.1462  0.6761 -2.1163
  362EMI    C01 6860   3.537   4.254   2.419  0.8012  0.3113 -0.2698
  362EMI    C04 6861   3.350   4.166   2.500 -0.4509  0.1510 -0.4104
  362EMI    C03 6862   3.320   4.232   2.392  0.2426 -0.2970  0.3396
  362EMI    H07 6863   3.640   4.281   2.425  1.2816 -1.5256  0.3560
  362EMI    H09 6864   3.300   4.106   2.573  2.4490  1.1676  2.6746
  362EMI    H08 6865   3.225   4.242   2.344  0.3107  0.3287  0.3191
  362EMI    C05 6866   3.444   4.377   2.218  0.1585  0.5428 -0.2517
  362EMI    H0B 6867   3.356   4.377   2.155  0.2371 -1.1349 -0.4090
  362EMI    H0C 6868   3.473   4.479   2.235  0.2373  0.2664  1.4151
  362EMI    H0D 6869   3.526   4.341   2.158 -0.9473 -0.4761 -1.2087
  362EMI    N00 6870   3.437   4.293   2.340 -0.2173 -0.9187  0.1070
  362EMI    C06 6871   3.564   4.160   2.644 -0.3832 -0.0291 -0.4128
  362EMI    H0F 6872   3.659   4.113   2.628  0.7081  2.1566 -0.6728
  362EMI    C0N 6873   3.560   4.279   2.742 -0.4254  0.8918  0.0813
  362EMI    H0O 6874   3.553   4.373   2.688  4.3636  1.5229  0.1557
  362EMI    H0P 6875   3.471   4.271   2.804 -1.4783 -0.5261 -1.5349
  362EMI    H0Q 6876   3.650   4.281   2.803 -0.9220 -2.7559  1.1606
  362EMI    N02 6877   3.486   4.194   2.524 -0.4815  0.1652 -0.5595
  362EMI    H0E 6878   3.520   4.071   2.687 -0.8026  1.8563  3.4638
  363EMI    C01 6879   3.401   0.694   1.113 -0.4122  0.0251 -0.2352
  363EMI    C04 6880   3.515   0.736   1.291 -0.1208 -0.3153 -0.4107
  363EMI    C03 6881   3.451   0.846   1.254 -0.1342 -0.1972 -0.1181
  363EMI    H07 6882   3.364   0.636   1.031 -0.9957 -1.1901  0.8528
  363EMI    H09 6883   3.578   0.709   1.373  0.1746  1.0163 -0.1757
  363EMI    H08 6884   3.447   0.944   1.294 -0.4713  0.7556 -2.3525
  363EMI    C05 6885   3.306   0.909   1.056  0.0523  0.0219  0.2325
  363EMI    H0B 6886   3.225   0.953   1.113 -0.3125 -0.6799  0.2633
  363EMI    H0C 6887   3.382   0.982   1.029  1.7036 -1.7732 -0.1914
  363EMI    H0D 6888   3.262   0.873   0.964 -2.0319 -0.7248  1.4694
  363EMI    N00 6889   3.378   0.815   1.143  0.4002  0.1506 -0.2461
  363EMI    C06 6890   3.512   0.498   1.208 -0.0465 -0.9647 -0.5542
  363EMI    H0F 6891   3.441   0.434   1.257  1.0925 -2.0001 -0.1838
  363EMI    C0N 6892   3.555   0.437   1.079  0.1376 -0.1128 -0.0636
  363EMI    H0O 6893   3.490   0.467   0.998 -0.5987 -0.4907  0.3813
  363EMI    H0P 6894   3.655   0.474   1.061 -0.5018  2.2634  0.8048
  363EMI    H0Q 6895   3.559   0.329   1.083 -0.1937 -0.0771  2.0993
  363EMI    N02 6896   3.475   0.640   1.206 -0.6557  0.2832 -0.0812
  363EMI    H0E 6897   3.600   0.486   1.270  0.1621 -1.0600 -0.8677
  364EMI    C01 6898   4.060   3.539   4.343  0.5456 -0.0317 -0.2229
  364EMI    C04 6899   4.257   3.448   4.311  0.4992 -0.5309 -0.0201
  364EMI    C03 6900   4.271   3.567   4.369 -0.0727 -0.6022 -0.2074
  364EMI    H07 6901   3.954   3.555   4.342  0.6185  0.5299  0.6707
  364EMI    H09 6902   4.332   3.378   4.280  0.9747  0.5973 -1.5360
  364EMI    H08 6903   4.360   3.611   4.408 -0.7992  0.1841  0.6248
  364EMI    C05 6904   4.131   3.751   4.454 -0.3365 -0.2286 -0.1469
  364EMI    H0B 6905   4.213   3.764   4.522  0.8477  0.7696 -1.7026
  364EMI    H0C 6906   4.144   3.825   4.377 -2.3124 -0.3484 -0.6487
  364EMI    H0D 6907   4.032   3.767   4.496 -1.3434 -1.3029 -1.9684
  364EMI    N00 6908   4.151   3.624   4.391  0.3379 -0.0835  0.1073
  364EMI    C06 6909   4.066   3.322   4.222 -1.1445  0.1965 -0.0142
  364EMI    H0F 6910   4.015   3.249   4.283  0.7381 -1.7196 -0.5758
  364EMI    C0N 6911   4.002   3.358   4.091 -0.0869 -0.0250 -0.0157
  364EMI    H0O 6912   4.068   3.429   4.042  2.4370 -1.1821  1.4979
  364EMI    H0P 6913   3.994   3.276   4.020  1.3930 -0.9261  0.7935
  364EMI    H0Q 6914   3.903   3.401   4.100 -0.0927 -0.0421 -0.0004
  364EMI    N02 6915   4.124   3.431   4.290 -0.0419  0.0798  0.5630
  364EMI    H0E 6916   4.150   3.262   4.188 -2.3199 -0.0129 -2.8440
  365EMI    C01 6917   2.018   2.935   1.316 -0.0501  0.5757 -0.5419
  365EMI    C04 6918   2.164   3.053   1.415  0.3017  0.0461  0.3150
  365EMI    C03 6919   2.069   3.133   1.373 -0.1799  0.0469 -0.4968
  365EMI    H07 6920   1.973   2.850   1.268  1.1138 -0.5211  0.2331
  365EMI    H09 6921   2.252   3.067   1.473  1.4400 -1.3153 -1.0088
  365EMI    H08 6922   2.049   3.236   1.392 -0.1294 -0.2176  1.1659
  365EMI    C05 6923   1.871   3.106   1.211  0.1590 -0.0630 -0.3822
  365EMI    H0B 6924   1.836   3.195   1.261 -1.3022  1.7562 -4.2737
  365EMI    H0C 6925   1.903   3.129   1.110 -0.7688  0.6082 -0.5299
  365EMI    H0D 6926   1.794   3.031   1.203  0.2932 -0.1985 -0.4029
  365EMI    N00 6927   1.982   3.056   1.295  0.0454 -0.3100 -0.0853
  365EMI    C06 6928   2.218   2.816   1.402 -0.3875  0.0276 -0.0234
  365EMI    H0F 6929   2.162   2.730   1.368  0.3039 -0.8161  0.9103
  365EMI    C0N 6930   2.353   2.830   1.329  0.1426  0.3023  1.1199
  365EMI    H0O 6931   2.402   2.738   1.357  1.8634  1.3879  1.8548
  365EMI    H0P 6932   2.334   2.838   1.223  1.6666  3.8828  0.9907
  365EMI    H0Q 6933   2.411   2.911   1.371 -0.2186  1.2854 -0.2003
  365EMI    N02 6934   2.126   2.926   1.388  0.2358 -0.0459  0.2785
  365EMI    H0E 6935   2.233   2.801   1.508 -0.5792  2.4378  0.4060
  366EMI    C01 6936   4.495   0.695   3.001 -0.6531  0.1482  0.1023
  366EMI    C04 6937   4.640   0.600   3.139  0.0042  0.1303 -0.0913
  366EMI    C03 6938   4.521   0.537   3.155 -0.4266  0.0751 -0.5575
  366EMI    H07 6939   4.445   0.759   2.931 -0.0638 -1.5647 -1.9708
  366EMI    H09 6940   4.730   0.587   3.195 -1.1396 -0.6616  1.6345
  366EMI    H08 6941   4.482   0.455   3.211 -0.5273  0.2622 -0.3543
  366EMI    C05 6942   4.283   0.584   3.075  0.1359  0.5284  0.2505
  366EMI    H0B 6943   4.224   0.673   3.060 -0.8267 -0.1818 -0.3527
  366EMI    H0C 6944   4.250   0.508   3.005  2.5630 -0.0807 -0.3180
  366EMI    H0D 6945   4.263   0.541   3.173  0.7937  1.9659  1.0467
  366EMI    N00 6946   4.431   0.603   3.067  0.0412 -0.3465  0.0129
  366EMI    C06 6947   4.729   0.781   2.980  0.8658 -0.4114  0.6260
  366EMI    H0F 6948   4.797   0.724   2.920  2.6276  4.5908 -2.8266
  366EMI    C0N 6949   4.673   0.896   2.896 -0.4550  0.1728 -0.6995
  366EMI    H0O 6950   4.604   0.860   2.821 -1.9263  0.5609  0.4179
  366EMI    H0P 6951   4.623   0.974   2.952  0.7832 -0.0949  0.8593
  366EMI    H0Q 6952   4.750   0.947   2.838 -3.6270  2.0354 -3.7026
  366EMI    N02 6953   4.624   0.687   3.031 -0.2697  0.9139  0.7184
  366EMI    H0E 6954   4.785   0.819   3.065 -0.2009  1.3762  0.5958
  367EMI    C01 6955   0.267   2.616   0.810  0.8980  0.4263 -0.6902
  367EMI    C04 6956   0.462   2.686   0.742  0.1959  0.1162  0.0348
  367EMI    C03 6957   0.366   2.733   0.661 -0.8530  0.1505  0.2325
  367EMI    H07 6958   0.187   2.574   0.867  1.3597 -1.0992 -1.1047
  367EMI    H09 6959   0.566   2.705   0.729  0.1394 -0.1665 -0.8510
  367EMI    H08 6960   0.377   2.780   0.566 -0.2685 -3.0410 -1.4286
  367EMI    C05 6961   0.113   2.724   0.641 -0.1054 -0.5292  0.3855
  367EMI    H0B 6962   0.148   2.768   0.549  1.6577  1.5392  1.9256
  367EMI    H0C 6963   0.047   2.639   0.640 -2.2200  1.0356 -0.3732
  367EMI    H0D 6964   0.074   2.805   0.700  0.8296 -0.0460  0.3659
  367EMI    N00 6965   0.245   2.683   0.701  0.1870  0.4639 -0.1853
  367EMI    C06 6966   0.456   2.580   0.979  0.7248  0.1394 -0.3596
  367EMI    H0F 6967   0.373   2.541   1.036  0.8567  0.4562  0.0564
  367EMI    C0N 6968   0.558   2.460   0.980  0.3051  0.2075  0.5495
  367EMI    H0O 6969   0.656   2.501   0.959 -0.0750  1.8213  1.7202
  367EMI    H0P 6970   0.558   2.422   1.081 -3.9779  0.4631  0.8610
  367EMI    H0Q 6971   0.533   2.377   0.916 -3.2649  0.3065  1.6005
  367EMI    N02 6972   0.397   2.625   0.846 -0.4534  0.3696  0.5301
  367EMI    H0E 6973   0.494   2.658   1.044  2.9275 -0.5523 -0.7383
  368EMI    C01 6974   2.094   2.765   4.670 -0.4262  0.6565  0.4278
  368EMI    C04 6975   2.260   2.695   4.801  0.9752  0.8018 -0.3712
  368EMI    C03 6976   2.295   2.668   4.675  0.0312  0.0312 -0.9082
  368EMI    H07 6977   2.004   2.809   4.632  0.1942 -0.1104 -2.0845
  368EMI    H09 6978   2.304   2.677   4.896  0.1386 -3.8299 -0.6160
  368EMI    H08 6979   2.387   2.625   4.641 -0.0106 -0.6821 -0.1470
  368EMI    C05 6980   2.172   2.681   4.450  0.3195  0.0515 -0.4490
  368EMI    H0B 6981   2.271   2.654   4.418  1.9492  2.8859  1.7079
  368EMI    H0C 6982   2.101   2.604   4.421 -0.6282 -0.1064  2.0104
  368EMI    H0D 6983   2.159   2.781   4.413 -1.6469  0.8490  2.0577
  368EMI    N00 6984   2.179   2.699   4.600 -0.0814 -0.3436  0.8877
  368EMI    C06 6985   2.073   2.820   4.911 -0.1291 -0.2877  0.5981
  368EMI    H0F 6986   1.979   2.851   4.867 -0.1422  0.4009  1.0918
  368EMI    C0N 6987   2.034   2.716   5.014 -0.2116 -0.1489 -0.1983
  368EMI    H0O 6988   1.954   2.743   5.082 -0.3385  0.2543 -0.5047
  368EMI    H0P 6989   1.999   2.629   4.959 -2.1656 -0.7818  1.9038
  368EMI    H0Q 6990   2.118   2.685   5.075 -0.2901 -0.1166 -0.0730
  368EMI    N02 6991   2.139   2.764   4.791 -0.9889  0.6266 -0.1283
  368EMI    H0E 6992   2.128   2.905   4.949  1.1816 -1.0054  0.3811
  369EMI    C01 6993   0.236   4.195   2.947  0.2369 -1.1496  0.2289
  369EMI    C04 6994   0.040   4.226   3.020 -0.4568  0.2525  0.2136
  369EMI    C03 6995   0.026   4.145   2.916 -0.2898 -0.1634  0.0734
  369EMI    H07 6996   0.343   4.190   2.939  0.3800  2.0321 -0.9179
  369EMI    H09 6997  -0.024   4.257   3.100 -0.4235 -0.5346  0.5619
  369EMI    H08 6998  -0.054   4.087   2.875  0.5214 -1.3835  0.1742
  369EMI    C05 6999   0.203   4.039   2.761 -0.2469  0.5004 -0.1161
  369EMI    H0B 7000   0.136   4.038   2.676  0.3392 -0.9640 -0.5924
  369EMI    H0C 7001   0.304   4.057   2.727  0.0814 -1.9564 -0.6238
  369EMI    H0D 7002   0.223   3.943   2.806  1.5588  0.6584 -0.5058
  369EMI    N00 7003   0.154   4.121   2.876 -0.3347  0.0093 -0.0841
  369EMI    C06 7004   0.226   4.370   3.119  0.3255  0.3112  0.5500
  369EMI    H0F 7005   0.168   4.459   3.104 -0.0834 -0.2997 -1.7686
  369EMI    C0N 7006   0.231   4.330   3.263  0.6465 -0.1415 -0.1758
  369EMI    H0O 7007   0.187   4.408   3.324  0.9813  0.0972 -0.2325
  369EMI    H0P 7008   0.178   4.237   3.278  2.9330 -1.1067  3.3433
  369EMI    H0Q 7009   0.331   4.318   3.304  1.1624 -0.0535 -1.3745
  369EMI    N02 7010   0.170   4.268   3.028 -0.4301 -0.1939 -0.1456
  369EMI    H0E 7011   0.325   4.394   3.085 -0.3882  0.8070 -1.2895
  370EMI    C01 7012   2.991   1.987   2.308  0.3768 -0.0602  0.1282
  370EMI    C04 7013   3.063   1.789   2.358  0.1789  0.0127  0.2549
  370EMI    C03 7014   2.929   1.785   2.360 -0.0947 -0.2245  0.2571
  370EMI    H07 7015   2.992   2.090   2.277 -2.3105 -0.3702 -1.2285
  370EMI    H09 7016   3.130   1.717   2.399  1.6231 -0.3057 -2.4238
  370EMI    H08 7017   2.869   1.704   2.396 -0.6157  0.1413  0.2141
  370EMI    C05 7018   2.749   1.947   2.280  0.5849  0.1088 -0.3426
  370EMI    H0B 7019   2.757   2.010   2.192 -1.8342 -1.4868 -1.8090
  370EMI    H0C 7020   2.686   1.862   2.260 -2.8893  2.3896  0.1492
  370EMI    H0D 7021   2.705   2.010   2.356  0.7481  2.1153 -1.8192
  370EMI    N00 7022   2.882   1.908   2.318  0.0885 -0.0304 -0.2200
  370EMI    C06 7023   3.229   1.969   2.330 -0.1238  0.8787  0.4159
  370EMI    H0F 7024   3.287   1.927   2.249 -0.1741  0.0271  0.8081
  370EMI    C0N 7025   3.245   2.115   2.327  0.3328 -0.3268  0.0644
  370EMI    H0O 7026   3.197   2.146   2.235  1.2616  1.6372  0.1934
  370EMI    H0P 7027   3.182   2.157   2.405  0.3423 -0.7301  0.2928
  370EMI    H0Q 7028   3.348   2.146   2.326  0.1334  0.3881 -1.3606
  370EMI    N02 7029   3.097   1.913   2.317 -0.0200 -0.5817  0.6700
  370EMI    H0E 7030   3.252   1.931   2.429 -2.1025 -1.9092 -0.0641
  371EMI    C01 7031   0.554   0.571   4.570 -0.2171  0.0127  0.0628
  371EMI    C04 7032   0.482   0.504   4.378  0.5284 -0.7122  0.2111
  371EMI    C03 7033   0.592   0.436   4.411 -0.1177  0.4794 -0.1774
  371EMI    H07 7034   0.557   0.638   4.654 -1.5620  1.5326 -1.0171
  371EMI    H09 7035   0.415   0.492   4.295 -0.2231 -2.1821  0.9971
  371EMI    H08 7036   0.638   0.352   4.364 -0.5158 -0.5889  1.2595
  371EMI    C05 7037   0.754   0.436   4.607 -0.0213  0.3531 -0.1583
  371EMI    H0B 7038   0.727   0.462   4.708 -0.6134  4.6208 -1.2170
  371EMI    H0C 7039   0.775   0.332   4.592  1.2283  0.6397 -0.5219
  371EMI    H0D 7040   0.844   0.487   4.575 -0.8397  1.4686 -0.7438
  371EMI    N00 7041   0.638   0.479   4.532  0.6166  0.3769 -0.2237
  371EMI    C06 7042   0.357   0.694   4.474 -0.3808  0.7282 -0.5276
  371EMI    H0F 7043   0.332   0.717   4.576 -2.1065  1.9667 -1.1715
  371EMI    C0N 7044   0.409   0.814   4.395  0.0014  0.4581 -0.0245
  371EMI    H0O 7045   0.447   0.783   4.298  2.4451  0.4119  0.8711
  371EMI    H0P 7046   0.327   0.882   4.377 -1.2274 -0.4282  1.9175
  371EMI    H0Q 7047   0.496   0.857   4.444 -0.1046  0.5115  0.1152
  371EMI    N02 7048   0.460   0.593   4.475 -0.6534  0.5625 -0.2877
  371EMI    H0E 7049   0.266   0.648   4.437  0.3949  0.3347 -2.0364
  372EMI    C01 7050   3.340   0.167   0.528  0.0294  0.1338  0.2383
  372EMI    C04 7051   3.316  -0.037   0.605  0.4036  0.3285  0.8330
  372EMI    C03 7052   3.434   0.006   0.637 -0.5171 -0.6688 -0.5110
  372EMI    H07 7053   3.321   0.255   0.470  1.5982 -0.7897 -1.8397
  372EMI    H09 7054   3.269  -0.132   0.619  0.6262  0.0442 -0.2618
  372EMI    H08 7055   3.509  -0.034   0.702 -0.8057 -1.2813 -0.5583
  372EMI    C05 7056   3.563   0.222   0.600  0.7175  0.5194  0.2609
  372EMI    H0B 7057   3.583   0.250   0.702  3.2395 -2.1261  0.6383
  372EMI    H0C 7058   3.638   0.157   0.557 -1.7627 -3.5060  1.4932
  372EMI    H0D 7059   3.552   0.319   0.553 -2.2812  0.7230  1.1776
  372EMI    N00 7060   3.446   0.139   0.596 -0.4041 -0.5925  0.3073
  372EMI    C06 7061   3.127   0.065   0.465 -0.2342 -0.5293  0.6286
  372EMI    H0F 7062   3.046   0.084   0.533  1.1839 -0.4182  2.3511
  372EMI    C0N 7063   3.126   0.153   0.342  0.0069  0.3208  0.2701
  372EMI    H0O 7064   3.198   0.132   0.263  0.8686  0.4092  1.0274
  372EMI    H0P 7065   3.029   0.132   0.296  0.8006 -2.2866 -0.4211
  372EMI    H0Q 7066   3.101   0.255   0.369 -4.3778 -0.4549 -0.1362
  372EMI    N02 7067   3.254   0.066   0.541  0.1169  0.3761  0.2285
  372EMI    H0E 7068   3.107  -0.035   0.431 -0.8692 -0.0359 -0.4953
  373EMI    C01 7069   2.747   4.749   2.094  0.1845  0.1896  0.3975
  373EMI    C04 7070   2.570   4.692   2.213 -0.0932 -0.1189  0.2973
  373EMI    C03 7071   2.565   4.823   2.199 -0.7965 -0.0777 -0.3970
  373EMI    H07 7072   2.832   4.748   2.030  1.1658 -5.5101  1.3170
  373EMI    H09 7073   2.498   4.633   2.265 -0.0892  0.8634  1.4696
  373EMI    H08 7074   2.486   4.886   2.234 -0.9340 -0.1424 -0.5887
  373EMI    C05 7075   2.677   4.980   2.034  0.0316 -0.3737  0.6121
  373EMI    H0B 7076   2.590   5.016   1.981 -0.2113  0.6453  1.6757
  373EMI    H0C 7077   2.715   5.058   2.098 -0.1618 -1.0691  1.5865
  373EMI    H0D 7078   2.757   4.966   1.963 -0.8250 -3.1979  0.0538
  373EMI    N00 7079   2.663   4.856   2.106  0.2909  0.0978 -0.1609
  373EMI    C06 7080   2.736   4.503   2.160 -0.2105 -0.2900  0.1884
  373EMI    H0F 7081   2.723   4.465   2.261  0.5917 -0.2556  0.3132
  373EMI    C0N 7082   2.656   4.422   2.060 -0.3152 -0.7243 -0.2792
  373EMI    H0O 7083   2.563   4.396   2.110 -0.5049 -0.0461 -0.2655
  373EMI    H0P 7084   2.625   4.478   1.973 -0.0119  0.0176  0.0765
  373EMI    H0Q 7085   2.712   4.336   2.026 -0.3155 -0.6654 -0.4307
  373EMI    N02 7086   2.693   4.646   2.158  0.0771 -0.5666 -0.3481
  373EMI    H0E 7087   2.843   4.491   2.151 -0.0034 -0.5391  2.4393
  374EMI    C01 7088   0.962   3.296   4.907 -0.2543  0.5526  0.2701
  374EMI    C04 7089   0.865   3.424   5.061  0.4339 -0.0280  1.3935
  374EMI    C03 7090   0.771   3.384   4.973  0.0600  0.8017  0.3229
  374EMI    H07 7091   1.032   3.232   4.857 -0.8812  0.0898 -0.0291
  374EMI    H09 7092   0.859   3.475   5.154  3.9304 -0.6894  2.1386
  374EMI    H08 7093   0.666   3.403   4.983 -0.2372 -0.9629  0.9944
  374EMI    C05 7094   0.773   3.265   4.755 -0.4820 -0.4168  0.7768
  374EMI    H0B 7095   0.825   3.183   4.707 -1.2451  0.0734 -0.9719
  374EMI    H0C 7096   0.678   3.218   4.776  0.8130 -2.8721  1.5028
  374EMI    H0D 7097   0.754   3.339   4.678 -1.1161  0.4078  1.7016
  374EMI    N00 7098   0.838   3.314   4.875  0.1904  0.7367 -0.1438
  374EMI    C06 7099   1.105   3.354   5.093 -0.1175 -0.5244  0.1231
  374EMI    H0F 7100   1.181   3.353   5.016 -1.2146  0.2837 -1.0018
  374EMI    C0N 7101   1.125   3.481   5.169  0.1353  0.5547  0.2092
  374EMI    H0O 7102   1.062   3.494   5.256 -0.8503 -3.2403  0.2370
  374EMI    H0P 7103   1.226   3.468   5.207 -0.0156  0.9799  0.7807
  374EMI    H0Q 7104   1.125   3.571   5.109  1.6659  1.2783  1.2194
  374EMI    N02 7105   0.981   3.356   5.021  0.5327 -0.6899  0.1156
  374EMI    H0E 7106   1.107   3.264   5.152  0.8727 -2.3407 -2.5030
  375EMI    C01 7107   0.946   1.653   0.565 -0.0197 -0.6319 -0.0611
  375EMI    C04 7108   0.885   1.803   0.711  0.1946  0.3759 -0.0979
  375EMI    C03 7109   0.946   1.706   0.773 -0.0382 -0.2421 -0.5869
  375EMI    H07 7110   0.969   1.602   0.474  0.4704 -0.8169  0.1567
  375EMI    H09 7111   0.840   1.895   0.742 -0.2986 -0.0238  0.3920
  375EMI    H08 7112   0.961   1.694   0.879 -2.2838  0.5031 -0.1304
  375EMI    C05 7113   1.053   1.481   0.705  0.0312 -0.4756  1.3868
  375EMI    H0B 7114   1.134   1.490   0.775  0.9263 -2.9742  0.7700
  375EMI    H0C 7115   0.982   1.404   0.731  0.2981 -0.4577  2.1946
  375EMI    H0D 7116   1.098   1.451   0.612  0.6189 -1.2625  1.9102
  375EMI    N00 7117   0.986   1.608   0.683 -0.1711  0.2358  0.4477
  375EMI    C06 7118   0.835   1.858   0.477 -0.0533 -0.4088 -0.2685
  375EMI    H0F 7119   0.868   1.955   0.511 -2.4790 -0.1421  1.6271
  375EMI    C0N 7120   0.869   1.827   0.335 -0.1765 -0.2611 -0.0371
  375EMI    H0O 7121   0.823   1.905   0.276 -0.1795 -0.4906 -0.3420
  375EMI    H0P 7122   0.975   1.829   0.311  0.3459  0.3691  2.1209
  375EMI    H0Q 7123   0.817   1.736   0.308 -2.3240  0.5914  0.9663
  375EMI    N02 7124   0.892   1.772   0.579 -0.3792  0.0710  1.2935
  375EMI    H0E 7125   0.728   1.850   0.492  0.2005 -1.1981  1.2441
  376EMI    C01 7126   4.361   3.900   1.319 -0.1022  0.0445 -0.3090
  376EMI    C04 7127   4.316   4.108   1.367  0.5747 -0.2428 -0.1949
  376EMI    C03 7128   4.246   4.074   1.258  0.5453 -0.1851 -0.3812
  376EMI    H07 7129   4.417   3.809   1.315  1.3394  0.8902 -0.1867
  376EMI    H09 7130   4.312   4.190   1.435 -2.4654 -0.8377  0.5293
  376EMI    H08 7131   4.173   4.120   1.195  0.9271 -2.6070 -2.7623
  376EMI    C05 7132   4.209   3.872   1.117 -0.3515  1.0424 -0.3327
  376EMI    H0B 7133   4.108   3.901   1.092  0.0165  1.5514 -1.2739
  376EMI    H0C 7134   4.279   3.866   1.035 -0.9338 -0.8922 -0.7333
  376EMI    H0D 7135   4.218   3.774   1.161  0.0653  0.9236 -0.6742
  376EMI    N00 7136   4.276   3.947   1.230 -0.0529  0.1936  0.2962
  376EMI    C06 7137   4.479   3.990   1.517  0.0117 -0.4399  0.2186
  376EMI    H0F 7138   4.464   4.075   1.582 -1.1186  0.7495 -1.5044
  376EMI    C0N 7139   4.471   3.864   1.596 -0.5910  0.3635 -0.4018
  376EMI    H0O 7140   4.522   3.782   1.547  0.3676  1.2522 -0.9393
  376EMI    H0P 7141   4.478   3.874   1.704 -2.4943 -3.3742  0.2313
  376EMI    H0Q 7142   4.365   3.841   1.585 -0.7530  1.0416 -0.3194
  376EMI    N02 7143   4.387   3.995   1.408  0.2425 -0.3470 -0.1336
  376EMI    H0E 7144   4.581   4.008   1.485 -1.3833  3.3902 -3.0208
  377EMI    C01 7145   2.698   4.737   0.552 -0.2502  0.1994 -0.5261
  377EMI    C04 7146   2.770   4.672   0.363  0.2877 -0.1702  0.8359
  377EMI    C03 7147   2.876   4.719   0.429  0.2882  0.5842 -0.2090
  377EMI    H07 7148   2.638   4.765   0.636  1.7252  2.3684  0.2632
  377EMI    H09 7149   2.775   4.626   0.267 -1.9364 -0.2018  0.6653
  377EMI    H08 7150   2.979   4.726   0.402  1.2201 -0.8396  2.5964
  377EMI    C05 7151   2.900   4.838   0.644 -0.6217  0.2079  0.2130
  377EMI    H0B 7152   2.908   4.786   0.738 -0.1390  1.8486  1.1102
  377EMI    H0C 7153   3.000   4.862   0.609 -0.5061  0.7135  0.8667
  377EMI    H0D 7154   2.849   4.931   0.664 -1.3995 -0.2002  0.1440
  377EMI    N00 7155   2.824   4.766   0.545 -0.0107  0.4752 -0.0052
  377EMI    C06 7156   2.517   4.667   0.404  0.4224  0.9517 -0.0363
  377EMI    H0F 7157   2.491   4.755   0.346 -0.7009  0.3267 -0.5081
  377EMI    C0N 7158   2.479   4.547   0.332 -0.0012 -0.0736  0.5897
  377EMI    H0O 7159   2.385   4.558   0.280  0.5937 -1.2131 -0.8046
  377EMI    H0P 7160   2.556   4.515   0.263  0.0560 -3.4465  2.0400
  377EMI    H0Q 7161   2.469   4.470   0.407 -1.5543  0.2126  0.7143
  377EMI    N02 7162   2.656   4.691   0.440  0.0802  0.4196 -0.7133
  377EMI    H0E 7163   2.467   4.671   0.500  1.6017  0.9612  0.5976
  378EMI    C01 7164   1.127   1.124   1.945  0.2998  0.0427  0.7665
  378EMI    C04 7165   0.922   1.097   1.858  0.0392  0.7272  0.0527
  378EMI    C03 7166   0.907   1.130   1.985 -0.3466  0.0417  0.5894
  378EMI    H07 7167   1.233   1.111   1.954  0.3397 -0.5829 -0.4082
  378EMI    H09 7168   0.852   1.080   1.779  0.7750  0.2535 -0.5022
  378EMI    H08 7169   0.820   1.141   2.046  0.8732 -0.9355  2.6267
  378EMI    C05 7170   1.069   1.184   2.180  0.5778  0.0480  0.6596
  378EMI    H0B 7171   1.133   1.102   2.208  1.6874  0.9364  0.7628
  378EMI    H0C 7172   1.125   1.276   2.185  0.0956  0.3377  0.7687
  378EMI    H0D 7173   0.979   1.189   2.239  0.6566 -2.0981  1.0534
  378EMI    N00 7174   1.035   1.157   2.038 -0.1461  0.3009  0.5259
  378EMI    C06 7175   1.133   1.041   1.706  0.0741 -1.0566  0.6870
  378EMI    H0F 7176   1.141   0.933   1.707 -0.6983 -1.2019 -1.8040
  378EMI    C0N 7177   1.056   1.083   1.577 -0.1183  0.1368 -0.1302
  378EMI    H0O 7178   0.978   1.013   1.550  0.2207 -0.6562  0.8813
  378EMI    H0P 7179   1.004   1.178   1.590  1.4644  0.6073  5.1247
  378EMI    H0Q 7180   1.125   1.087   1.494  1.5009  0.3431  1.1631
  378EMI    N02 7181   1.062   1.093   1.832 -0.1585 -0.1777 -0.0491
  378EMI    H0E 7182   1.228   1.092   1.703 -0.3334 -0.2789  0.7660
  379EMI    C01 7183   2.251   4.097   4.707 -0.3763  0.1384 -0.5963
  379EMI    C04 7184   2.299   3.911   4.609 -0.5688 -0.0392 -0.4884
  379EMI    C03 7185   2.409   3.957   4.671  0.1158  0.1503 -0.3189
  379EMI    H07 7186   2.199   4.184   4.738  0.4009  0.6304 -0.6585
  379EMI    H09 7187   2.290   3.813   4.568  3.4862 -0.6850 -0.1902
  379EMI    H08 7188   2.508   3.917   4.670 -0.7084 -1.9947 -1.2879
  379EMI    C05 7189   2.468   4.165   4.808 -0.2447  0.0656 -0.0183
  379EMI    H0B 7190   2.572   4.152   4.781 -0.0575  0.2999  0.5678
  379EMI    H0C 7191   2.441   4.268   4.788  0.2141  0.1441 -0.2385
  379EMI    H0D 7192   2.448   4.139   4.911  0.1450  2.1218  0.6244
  379EMI    N00 7193   2.378   4.077   4.725  0.2086 -0.5669 -0.3429
  379EMI    C06 7194   2.053   4.003   4.589 -0.6117 -0.4385 -0.5461
  379EMI    H0F 7195   1.999   4.085   4.634 -1.0267 -1.3055  0.5635
  379EMI    C0N 7196   2.030   4.017   4.443 -0.4889 -0.3572 -0.3745
  379EMI    H0O 7197   2.106   3.956   4.394  0.7705 -1.0179  2.2130
  379EMI    H0P 7198   1.935   3.965   4.437 -1.1036  0.8320 -1.6729
  379EMI    H0Q 7199   2.030   4.119   4.408  1.2330  0.0844  0.8378
  379EMI    N02 7200   2.199   4.005   4.629  0.5954 -0.2426 -0.1714
  379EMI    H0E 7201   2.008   3.916   4.633  0.5995 -0.8835 -0.1519
  380EMI    C01 7202   2.979   0.939   4.441  0.7067  0.4586  0.4748
  380EMI    C04 7203   3.190   0.904   4.432  0.6605 -0.4750 -0.9461
  380EMI    C03 7204   3.168   1.025   4.382 -0.8072 -0.8119  0.2854
  380EMI    H07 7205   2.877   0.906   4.446  0.5023  1.2377  4.0278
  380EMI    H09 7206   3.279   0.852   4.462  0.3060  0.9383  3.0979
  380EMI    H08 7207   3.243   1.095   4.354 -0.5068 -0.8633  0.9390
  380EMI    C05 7208   2.964   1.173   4.362 -0.1026  0.5546  0.4285
  380EMI    H0B 7209   2.971   1.183   4.255  0.3725 -0.1490  0.3851
  380EMI    H0C 7210   2.866   1.185   4.405 -0.8996 -0.1063 -1.1471
  380EMI    H0D 7211   3.017   1.259   4.402  0.0756 -0.1048  1.6826
  380EMI    N00 7212   3.031   1.050   4.391 -0.2741 -0.7036  0.0345
  380EMI    C06 7213   3.035   0.709   4.492 -0.1249  0.1731 -0.4564
  380EMI    H0F 7214   2.951   0.697   4.558 -0.3251 -1.6187 -0.9576
  380EMI    C0N 7215   3.037   0.619   4.365  0.4260 -0.3655 -0.2125
  380EMI    H0O 7216   3.099   0.647   4.281 -0.5531 -0.2246 -0.9082
  380EMI    H0P 7217   3.063   0.521   4.402  0.9344  0.1961  0.9935
  380EMI    H0Q 7218   2.940   0.607   4.318 -0.0583 -0.1761  0.7033
  380EMI    N02 7219   3.069   0.848   4.466 -0.3557  0.1233  0.3327
  380EMI    H0E 7220   3.117   0.679   4.556  0.1268  1.6555 -0.0676
  381EMI    C01 7221   1.738   4.482   2.244  0.1317  0.7249 -0.3303
  381EMI    C04 7222   1.725   4.480   2.026 -0.3709 -0.1358 -0.2835
  381EMI    C03 7223   1.812   4.391   2.066  0.6341  0.6310  0.3870
  381EMI    H07 7224   1.705   4.512   2.341 -0.0334  0.8576 -0.4249
  381EMI    H09 7225   1.706   4.511   1.926  0.2081 -1.4725 -0.8372
  381EMI    H08 7226   1.872   4.323   2.008 -0.6346 -1.0238  0.9212
  381EMI    C05 7227   1.917   4.313   2.285  0.2298  0.3165 -0.3445
  381EMI    H0B 7228   1.884   4.322   2.388 -0.5373 -0.2185 -0.5361
  381EMI    H0C 7229   1.903   4.212   2.249  0.2208  0.0495  0.3826
  381EMI    H0D 7230   2.017   4.350   2.271  0.9996  0.5460  4.1095
  381EMI    N00 7231   1.827   4.393   2.201  0.8527  0.0804 -0.4825
  381EMI    C06 7232   1.551   4.617   2.151  0.0925 -0.6426  0.2582
  381EMI    H0F 7233   1.534   4.623   2.258  2.8769 -2.0443  0.8679
  381EMI    C0N 7234   1.559   4.744   2.080  0.8321 -1.0968  0.3049
  381EMI    H0O 7235   1.560   4.738   1.972 -0.9724 -1.3090  0.2693
  381EMI    H0P 7236   1.471   4.801   2.108  1.0760 -1.5489  2.0982
  381EMI    H0Q 7237   1.637   4.807   2.121 -0.5791  0.6204  0.4556
  381EMI    N02 7238   1.670   4.535   2.141 -0.6091 -0.2747  0.0143
  381EMI    H0E 7239   1.469   4.559   2.111  0.1736 -2.5329  2.6151
  382EMI    C01 7240   0.040   2.163   1.888  0.1114 -0.1459 -0.3496
  382EMI    C04 7241  -0.150   2.059   1.932 -0.8592  0.2704 -0.3591
  382EMI    C03 7242  -0.058   1.967   1.901 -0.2223 -0.3777  0.8357
  382EMI    H07 7243   0.113   2.240   1.875 -0.0326 -0.0253 -0.4513
  382EMI    H09 7244  -0.255   2.043   1.945 -0.9046  1.3002  0.6561
  382EMI    H08 7245  -0.074   1.862   1.892 -1.4536 -0.1182 -0.1790
  382EMI    C05 7246   0.186   1.953   1.860  0.6922 -0.8112  0.0982
  382EMI    H0B 7247   0.166   1.856   1.903 -1.4218 -0.7808 -0.6983
  382EMI    H0C 7248   0.197   1.954   1.752 -1.5378  2.4288 -0.2316
  382EMI    H0D 7249   0.267   2.009   1.905  0.5831 -1.1542  0.7360
  382EMI    N00 7250   0.064   2.033   1.888  0.5149 -0.4285  0.0841
  382EMI    C06 7251  -0.152   2.312   1.941  0.5622 -0.0399  0.0965
  382EMI    H0F 7252  -0.091   2.390   1.984 -0.0304  0.4872 -0.0030
  382EMI    C0N 7253  -0.230   2.360   1.819  0.8706 -1.0646  0.4846
  382EMI    H0O 7254  -0.270   2.460   1.828 -1.1486 -1.6771 -0.8388
  382EMI    H0P 7255  -0.164   2.353   1.733  0.6659 -1.2543  0.3420
  382EMI    H0Q 7256  -0.312   2.289   1.809 -0.9238  0.7811  1.4628
  382EMI    N02 7257  -0.085   2.181   1.919  0.3150 -0.0629 -0.4935
  382EMI    H0E 7258  -0.215   2.289   2.025 -1.3624  1.2438 -0.9296
  383EMI    C01 7259   4.588   2.057   3.044  0.0368  0.0729  0.0085
  383EMI    C04 7260   4.403   2.086   3.141 -0.2646 -0.9042  0.3005
  383EMI    C03 7261   4.466   2.201   3.156  0.2075  0.0320 -0.1522
  383EMI    H07 7262   4.670   2.027   2.984 -0.0181 -0.5251  0.2204
  383EMI    H09 7263   4.301   2.064   3.161 -1.3568  1.2181 -2.3849
  383EMI    H08 7264   4.431   2.291   3.201  0.5401  0.9288 -1.6147
  383EMI    C05 7265   4.677   2.286   3.036 -0.0142 -0.4138 -0.0737
  383EMI    H0B 7266   4.622   2.353   2.972 -0.7211 -2.8568 -2.1858
  383EMI    H0C 7267   4.707   2.335   3.128  0.4971 -1.3266  0.2637
  383EMI    H0D 7268   4.766   2.244   2.992  0.3581 -0.5789  0.8039
  383EMI    N00 7269   4.578   2.182   3.077 -0.4357 -0.0070  0.0463
  383EMI    C06 7270   4.433   1.862   3.049  0.7303 -1.2391 -0.4014
  383EMI    H0F 7271   4.510   1.826   2.982  0.9097 -2.0156  0.2129
  383EMI    C0N 7272   4.415   1.775   3.174 -1.1503 -0.2367  0.1013
  383EMI    H0O 7273   4.440   1.671   3.157 -1.0987 -0.4630  1.3970
  383EMI    H0P 7274   4.486   1.810   3.248  1.4098  0.3083 -2.4524
  383EMI    H0Q 7275   4.312   1.772   3.209 -1.3065 -0.0242 -0.3268
  383EMI    N02 7276   4.481   1.995   3.082 -0.0385  0.4543  0.4487
  383EMI    H0E 7277   4.340   1.865   2.995 -0.5889 -0.7978  1.7950
  384EMI    C01 7278   0.069   1.227   0.751 -0.2761  0.5132 -0.8572
  384EMI    C04 7279   0.096   1.442   0.778 -0.1113  0.0910 -0.7702
  384EMI    C03 7280   0.035   1.420   0.664  0.6370  0.2734 -0.6787
  384EMI    H07 7281   0.085   1.122   0.762  0.9712  0.6198 -1.5069
  384EMI    H09 7282   0.128   1.532   0.825 -1.7724  0.5958 -0.5206
  384EMI    H08 7283   0.009   1.489   0.587 -0.7814  0.9672  0.3768
  384EMI    C05 7284  -0.059   1.217   0.536 -0.4159  0.0524 -0.2627
  384EMI    H0B 7285  -0.163   1.244   0.521  0.1713  2.1039 -1.0772
  384EMI    H0C 7286  -0.004   1.243   0.446  2.5677  0.6232  1.5941
  384EMI    H0D 7287  -0.060   1.113   0.562 -0.8973 -0.6373 -2.7370
  384EMI    N00 7288   0.014   1.284   0.648 -0.2462 -0.0199  0.0924
  384EMI    C06 7289   0.222   1.288   0.947  0.1555 -0.0530  0.0151
  384EMI    H0F 7290   0.159   1.275   1.034 -2.4478  0.0978 -1.7481
  384EMI    C0N 7291   0.300   1.167   0.921 -0.0654  0.4194  0.2827
  384EMI    H0O 7292   0.386   1.175   0.986 -0.5542  1.2386  0.8458
  384EMI    H0P 7293   0.241   1.081   0.950  3.8029 -2.4344  0.4810
  384EMI    H0Q 7294   0.334   1.164   0.818 -0.7187  0.2349  0.0607
  384EMI    N02 7295   0.121   1.319   0.835  0.0714 -0.0582  0.0660
  384EMI    H0E 7296   0.287   1.373   0.966 -0.2540  0.2741 -0.0457
  385EMI    C01 7297   3.033   2.801   2.451 -0.0937 -0.9620  0.7221
  385EMI    C04 7298   3.147   2.972   2.531 -0.1205 -0.6545 -0.5434
  385EMI    C03 7299   3.073   2.918   2.628  0.2763  0.1083  0.0275
  385EMI    H07 7300   2.983   2.736   2.384 -0.2807  0.2945 -0.3963
  385EMI    H09 7301   3.209   3.058   2.525 -0.2108 -0.6323 -1.3130
  385EMI    H08 7302   3.057   2.964   2.723 -1.0238 -0.3398  0.0373
  385EMI    C05 7303   2.884   2.748   2.633  0.6942 -0.5096 -0.1772
  385EMI    H0B 7304   2.858   2.800   2.724  0.1049 -1.5111  0.2329
  385EMI    H0C 7305   2.805   2.746   2.559  0.0726 -1.4462  0.5007
  385EMI    H0D 7306   2.907   2.644   2.652 -1.4638 -0.9652  0.2043
  385EMI    N00 7307   3.000   2.812   2.575  1.1024  0.7982  0.5703
  385EMI    C06 7308   3.187   2.910   2.289 -0.7885 -0.8563 -0.7460
  385EMI    H0F 7309   3.106   2.900   2.218 -0.2961 -0.2327 -1.4042
  385EMI    C0N 7310   3.250   3.051   2.271  0.2425  0.0819  1.1301
  385EMI    H0O 7311   3.177   3.132   2.274 -0.5989 -0.4344 -1.9526
  385EMI    H0P 7312   3.344   3.075   2.318 -0.7676 -0.3578  3.5211
  385EMI    H0Q 7313   3.284   3.049   2.168 -1.9898 -0.8223  0.3298
  385EMI    N02 7314   3.125   2.894   2.425  0.0478  1.0064 -0.1238
  385EMI    H0E 7315   3.260   2.833   2.273  1.0676  0.7616 -0.4862
  386EMI    C01 7316   3.613   0.738   3.609 -0.6156  0.2699  0.4038
  386EMI    C04 7317   3.392   0.708   3.610  0.1909 -0.4267 -0.1438
  386EMI    C03 7318   3.448   0.640   3.512  0.1917 -0.6701  0.0575
  386EMI    H07 7319   3.709   0.777   3.636 -0.9601  0.2279  1.7536
  386EMI    H09 7320   3.291   0.709   3.644 -0.0452 -2.5474 -0.6653
  386EMI    H08 7321   3.398   0.598   3.428  0.2141  1.1445 -0.9105
  386EMI    C05 7322   3.677   0.582   3.426  0.0872  0.0079 -0.9709
  386EMI    H0B 7323   3.769   0.638   3.436 -0.3512  0.7898 -1.2893
  386EMI    H0C 7324   3.694   0.485   3.471 -2.9778 -0.0106  0.3835
  386EMI    H0D 7325   3.651   0.573   3.321  1.5420 -0.8931 -1.2875
  386EMI    N00 7326   3.582   0.655   3.513  0.7614  0.4271  0.7246
  386EMI    C06 7327   3.487   0.851   3.797 -0.1675  0.1064 -0.0774
  386EMI    H0F 7328   3.572   0.917   3.805 -1.3293  1.5690  0.5437
  386EMI    C0N 7329   3.362   0.932   3.797 -0.0100 -0.2636  0.7388
  386EMI    H0O 7330   3.369   1.010   3.871 -2.2893  0.7488 -0.0165
  386EMI    H0P 7331   3.344   0.967   3.696 -1.3424 -0.3945  0.9098
  386EMI    H0Q 7332   3.270   0.876   3.811  0.0334 -1.0002 -1.5001
  386EMI    N02 7333   3.502   0.769   3.672 -0.3060  0.7397 -0.3184
  386EMI    H0E 7334   3.485   0.785   3.883 -0.5102 -0.4647 -0.5125
  387EMI    C01 7335   1.336   0.254   2.212 -0.4591 -0.4325 -0.3394
  387EMI    C04 7336   1.131   0.233   2.167  0.9990  0.0927  0.7077
  387EMI    C03 7337   1.174   0.114   2.212 -0.0154 -0.2302  0.7439
  387EMI    H07 7338   1.432   0.299   2.227 -0.5104 -1.1468  2.8101
  387EMI    H09 7339   1.028   0.256   2.149  1.1277  0.4848  0.4787
  387EMI    H08 7340   1.116   0.028   2.241 -0.2398  0.2099  1.6556
  387EMI    C05 7341   1.390   0.021   2.284 -0.0371  0.1220 -0.2892
  387EMI    H0B 7342   1.325  -0.064   2.299  0.8986 -0.5877 -0.2101
  387EMI    H0C 7343   1.464  -0.007   2.211  0.6243 -0.3116  0.5292
  387EMI    H0D 7344   1.428   0.043   2.383  0.2836  0.7329 -0.5417
  387EMI    N00 7345   1.309   0.127   2.234 -0.0277 -0.4752  0.1108
  387EMI    C06 7346   1.249   0.450   2.090  0.0033 -0.2860  0.1090
  387EMI    H0F 7347   1.160   0.477   2.035 -1.4987  1.6357  3.2046
  387EMI    C0N 7348   1.254   0.555   2.205  0.9079 -0.5421  0.5559
  387EMI    H0O 7349   1.178   0.528   2.278  0.5511 -1.3821 -0.1055
  387EMI    H0P 7350   1.348   0.568   2.257  0.0086 -0.7950  2.3258
  387EMI    H0Q 7351   1.234   0.649   2.156 -1.9915 -1.7920 -0.9486
  387EMI    N02 7352   1.240   0.312   2.146  0.6490  0.1850 -0.8446
  387EMI    H0E 7353   1.336   0.461   2.027  0.7171 -2.7163  0.5669
  388EMI    C01 7354   0.019   4.213   1.306  1.4300 -0.7440  0.5338
  388EMI    C04 7355   0.224   4.196   1.253 -0.0992 -0.3537  0.0709
  388EMI    C03 7356   0.211   4.302   1.336 -0.2028  0.9966  0.0257
  388EMI    H07 7357  -0.087   4.196   1.311  1.1038  0.7848 -0.5132
  388EMI    H09 7358   0.312   4.164   1.202 -0.7971 -3.4385  0.5792
  388EMI    H08 7359   0.275   4.370   1.387 -1.0814  1.9202 -0.0638
  388EMI    C05 7360   0.023   4.391   1.479 -0.1706  0.5489  0.2357
  388EMI    H0B 7361   0.097   4.414   1.554  1.0322 -3.4920  0.4919
  388EMI    H0C 7362  -0.019   4.475   1.426 -0.8840  0.8436  1.2359
  388EMI    H0D 7363  -0.053   4.332   1.528  0.7620  0.0132  1.0763
  388EMI    N00 7364   0.083   4.303   1.380 -0.2546 -0.0284 -0.1482
  388EMI    C06 7365   0.071   4.027   1.140 -0.0805 -0.6459  0.8421
  388EMI    H0F 7366   0.099   4.048   1.038  0.0259  0.7710  1.1435
  388EMI    C0N 7367   0.143   3.900   1.178  0.2669 -0.2611  0.0014
  388EMI    H0O 7368   0.252   3.907   1.175  0.1959  0.6092 -0.5714
  388EMI    H0P 7369   0.118   3.875   1.281 -0.8436 -1.9530 -0.6404
  388EMI    H0Q 7370   0.121   3.808   1.125 -0.2834 -1.1698  1.7057
  388EMI    N02 7371   0.100   4.146   1.224 -0.7011  0.3561 -0.4302
  388EMI    H0E 7372  -0.035   4.009   1.144 -0.3408  0.8709  1.4585
  389EMI    C01 7373   3.173   3.159   4.084  0.6040  0.1997 -0.2592
  389EMI    C04 7374   3.123   3.193   3.878  0.5806 -0.0611 -0.0511
  389EMI    C03 7375   3.056   3.086   3.917  0.2968 -0.5897  0.9138
  389EMI    H07 7376   3.204   3.190   4.182  1.3114  1.9152 -0.9767
  389EMI    H09 7377   3.148   3.229   3.780  1.5061 -1.1259 -0.2178
  389EMI    H08 7378   2.997   3.023   3.855  1.5148 -2.1726  1.3056
  389EMI    C05 7379   2.996   2.972   4.128 -0.2209  1.1342  0.0201
  389EMI    H0B 7380   3.010   2.870   4.095 -1.1817  0.6840  0.9319
  389EMI    H0C 7381   3.028   2.973   4.231  1.6767  2.0273 -0.5345
  389EMI    H0D 7382   2.891   2.994   4.118 -0.3705  0.0294 -1.0805
  389EMI    N00 7383   3.078   3.069   4.050 -0.1708  0.1624  0.9865
  389EMI    C06 7384   3.271   3.369   3.984  0.2712  0.0379 -0.0075
  389EMI    H0F 7385   3.363   3.354   3.931 -0.6145  1.7805 -2.2080
  389EMI    C0N 7386   3.181   3.472   3.914  0.5200 -0.2616 -0.3592
  389EMI    H0O 7387   3.075   3.458   3.935  0.5856  1.0778  0.9685
  389EMI    H0P 7388   3.205   3.575   3.937 -2.8989  0.9484 -1.5426
  389EMI    H0Q 7389   3.199   3.473   3.807  0.7635  1.2864 -0.3228
  389EMI    N02 7390   3.204   3.236   3.982  0.2924 -0.1767 -0.3964
  389EMI    H0E 7391   3.282   3.398   4.088  1.9892 -1.5381  0.3062
  390EMI    C01 7392   3.589   4.990   2.384 -0.2493 -0.7268  0.9274
  390EMI    C04 7393   3.424   5.101   2.447  0.1792 -0.3907 -0.2953
  390EMI    C03 7394   3.503   5.182   2.378 -0.3710  0.4755 -0.1947
  390EMI    H07 7395   3.660   4.912   2.375  0.6509  0.0963  0.7364
  390EMI    H09 7396   3.336   5.127   2.501  1.5932  1.7762  1.1590
  390EMI    H08 7397   3.494   5.287   2.360  0.2889  0.1846 -2.6174
  390EMI    C05 7398   3.721   5.158   2.260 -1.0525 -0.5024 -0.2829
  390EMI    H0B 7399   3.774   5.230   2.321  0.3126 -1.4300 -0.3232
  390EMI    H0C 7400   3.787   5.076   2.234 -1.2046 -0.4233 -0.9222
  390EMI    H0D 7401   3.699   5.210   2.169  2.9768  2.5045  0.2153
  390EMI    N00 7402   3.607   5.113   2.336  0.1402  0.1956 -0.4993
  390EMI    C06 7403   3.429   4.854   2.518  0.4933 -0.1399 -0.5313
  390EMI    H0F 7404   3.398   4.895   2.614  0.3800  2.5258 -1.6241
  390EMI    C0N 7405   3.316   4.792   2.448  0.1716  0.0598 -0.0797
  390EMI    H0O 7406   3.254   4.727   2.510  0.7635 -2.2298 -1.7491
  390EMI    H0P 7407   3.256   4.871   2.404  1.0298  0.3410 -0.7706
  390EMI    H0Q 7408   3.340   4.735   2.359 -1.4099  1.2622 -1.3446
  390EMI    N02 7409   3.481   4.977   2.446  0.2716  0.6162  0.6565
  390EMI    H0E 7410   3.509   4.783   2.529  0.0561 -0.6941 -0.8958
  391EMI    C01 7411   1.690   4.960   0.887 -0.1747 -0.3617 -0.4361
  391EMI    C04 7412   1.487   5.013   0.938 -0.7954  0.0883 -0.1075
  391EMI    C03 7413   1.567   5.097   1.000  0.0281  0.2379 -0.4987
  391EMI    H07 7414   1.772   4.902   0.852  0.3304  0.0455  0.0558
  391EMI    H09 7415   1.380   5.020   0.948 -0.6393  1.8082  0.7831
  391EMI    H08 7416   1.532   5.181   1.055 -0.2522 -1.8047  2.7291
  391EMI    C05 7417   1.818   5.134   1.017  0.3199  0.3870 -0.9809
  391EMI    H0B 7418   1.836   5.091   1.114  0.0301 -2.1558 -1.9915
  391EMI    H0C 7419   1.902   5.132   0.948 -0.0646 -1.1826 -1.4476
  391EMI    H0D 7420   1.810   5.241   1.031  2.3896  0.6809 -1.6140
  391EMI    N00 7421   1.696   5.070   0.966 -0.3325 -0.4840 -0.4002
  391EMI    C06 7422   1.528   4.817   0.766 -0.2927 -0.4991 -0.0985
  391EMI    H0F 7423   1.620   4.786   0.720 -1.0772 -4.6716  0.7070
  391EMI    C0N 7424   1.463   4.693   0.823 -0.3581  1.0162  0.3533
  391EMI    H0O 7425   1.512   4.633   0.899  1.0203  1.0097 -0.4998
  391EMI    H0P 7426   1.371   4.736   0.861  0.7233  3.8221 -0.0005
  391EMI    H0Q 7427   1.442   4.630   0.738  1.1759 -0.1122  0.7671
  391EMI    N02 7428   1.567   4.930   0.860  0.2327  0.1365 -0.2824
  391EMI    H0E 7429   1.479   4.862   0.681  0.4255 -1.0818 -0.8393
  392EMI    C01 7430   4.200   2.668   0.513  0.2083  0.2983 -0.3919
  392EMI    C04 7431   4.161   2.543   0.682  0.2956 -0.5575  0.4336
  392EMI    C03 7432   4.094   2.654   0.701 -0.2392 -0.1162 -0.3263
  392EMI    H07 7433   4.228   2.694   0.413  0.2450 -1.5870 -0.9202
  392EMI    H09 7434   4.174   2.454   0.740 -0.3705 -2.2057 -1.8212
  392EMI    H08 7435   4.036   2.688   0.784 -0.6526 -1.5115 -0.0079
  392EMI    C05 7436   4.045   2.855   0.565 -0.0776  0.5473 -0.7802
  392EMI    H0B 7437   4.012   2.865   0.463  1.0199  1.9839 -1.0178
  392EMI    H0C 7438   3.961   2.867   0.631  0.4088 -1.2112  0.2343
  392EMI    H0D 7439   4.113   2.933   0.594  1.2803 -1.1328  0.8365
  392EMI    N00 7440   4.111   2.725   0.586  0.4407  0.4120 -0.3545
  392EMI    C06 7441   4.311   2.445   0.507 -0.5053 -0.4786  0.3794
  392EMI    H0F 7442   4.388   2.412   0.576  0.6461  1.1562 -0.0523
  392EMI    C0N 7443   4.234   2.344   0.426 -0.0048  0.0963  0.0428
  392EMI    H0O 7444   4.302   2.310   0.349 -0.5933 -2.9707  0.7279
  392EMI    H0P 7445   4.202   2.256   0.480 -1.8728 -0.9448 -2.5688
  392EMI    H0Q 7446   4.147   2.384   0.376 -0.5828  0.7631  1.5215
  392EMI    N02 7447   4.227   2.550   0.564 -0.5305 -0.2282  0.0665
  392EMI    H0E 7448   4.378   2.497   0.440 -0.9892 -0.2189  0.0992
  393EMI    C01 7449   4.117   1.278   3.295 -0.0454 -1.1099 -0.0742
  393EMI    C04 7450   4.306   1.227   3.388 -0.7660 -0.1386  0.3357
  393EMI    C03 7451   4.322   1.341   3.321 -0.6688  0.2825  0.2277
  393EMI    H07 7452   4.015   1.273   3.265 -0.4945 -0.0749  1.1939
  393EMI    H09 7453   4.379   1.178   3.449 -0.1207 -1.2493 -1.2691
  393EMI    H08 7454   4.410   1.401   3.312  0.3260 -1.1584 -0.0848
  393EMI    C05 7455   4.173   1.498   3.190 -0.8113 -0.2780  0.7077
  393EMI    H0B 7456   4.247   1.574   3.213 -1.7446 -0.1298  3.6482
  393EMI    H0C 7457   4.169   1.476   3.084  1.2476 -1.1420  0.7828
  393EMI    H0D 7458   4.083   1.550   3.220 -0.6441 -0.5091  1.6231
  393EMI    N00 7459   4.201   1.377   3.270 -0.1576 -0.0467  0.3577
  393EMI    C06 7460   4.104   1.073   3.445  0.1014 -0.1937  0.0178
  393EMI    H0F 7461   4.148   0.995   3.386  0.4027  0.4309 -0.6010
  393EMI    C0N 7462   4.138   1.053   3.590 -0.3021  0.4210  0.0892
  393EMI    H0O 7463   4.068   0.984   3.636  0.7449 -0.3664  0.5689
  393EMI    H0P 7464   4.239   1.015   3.603 -0.8339 -0.8942  0.6048
  393EMI    H0Q 7465   4.134   1.146   3.644 -0.6011  0.1971  0.4586
  393EMI    N02 7466   4.173   1.192   3.376 -0.3464 -0.5404 -0.1100
  393EMI    H0E 7467   4.000   1.095   3.425  0.7271  1.5243 -1.7799
  394EMI    C01 7468   1.319   4.165   0.174  0.3109 -0.3194  0.3375
  394EMI    C04 7469   1.250   3.961   0.184  0.4160  0.0690  0.2186
  394EMI    C03 7470   1.199   4.013   0.074 -0.6991 -0.1973 -0.8401
  394EMI    H07 7471   1.370   4.255   0.201 -2.5633  1.5661 -0.1809
  394EMI    H09 7472   1.231   3.861   0.218 -0.0600  0.2345  0.4490
  394EMI    H08 7473   1.151   3.959  -0.005  0.3627 -2.0625 -0.2701
  394EMI    C05 7474   1.233   4.242  -0.044  0.2270 -0.1779  0.4761
  394EMI    H0B 7475   1.241   4.342  -0.006 -1.9522  0.3846 -0.4302
  394EMI    H0C 7476   1.289   4.205  -0.129 -0.7886 -0.4393 -0.0982
  394EMI    H0D 7477   1.134   4.225  -0.082  0.7478  1.4557 -1.8753
  394EMI    N00 7478   1.247   4.143   0.066 -0.5246  0.1356 -0.7677
  394EMI    C06 7479   1.381   4.049   0.383  0.2794 -0.5267 -0.0378
  394EMI    H0F 7480   1.322   4.080   0.468  1.3967 -1.1259  0.9885
  394EMI    C0N 7481   1.444   3.918   0.417  0.2996 -0.3427  0.0299
  394EMI    H0O 7482   1.515   3.892   0.339  0.4298 -0.2603  0.1201
  394EMI    H0P 7483   1.499   3.929   0.510  0.1316 -1.0656  0.2209
  394EMI    H0Q 7484   1.376   3.833   0.421  0.2546 -0.3251 -0.2967
  394EMI    N02 7485   1.313   4.064   0.252  0.4109  0.6810 -0.2443
  394EMI    H0E 7486   1.458   4.122   0.367  1.4577 -1.8624 -0.6662
  395EMI    C01 7487   1.718   3.307   2.003 -0.0718  0.0062  0.8475
  395EMI    C04 7488   1.692   3.461   2.148  0.2456 -0.0523 -0.2097
  395EMI    C03 7489   1.820   3.466   2.114 -0.0407  0.7764  0.5735
  395EMI    H07 7490   1.700   3.215   1.951 -1.0865  0.1044  1.0004
  395EMI    H09 7491   1.642   3.521   2.221  1.7210  1.3408 -0.2675
  395EMI    H08 7492   1.901   3.526   2.149  0.6635 -0.1780  0.6333
  395EMI    C05 7493   1.971   3.322   1.964  0.2595  0.2878  0.0138
  395EMI    H0B 7494   2.009   3.251   2.035  0.2605  0.7994  0.5317
  395EMI    H0C 7495   1.967   3.294   1.859  0.6389 -0.3289  0.1553
  395EMI    H0D 7496   2.026   3.415   1.970 -1.9059  1.8305 -2.1563
  395EMI    N00 7497   1.837   3.368   2.017  0.2263  0.2819 -0.2494
  395EMI    C06 7498   1.483   3.327   2.087  0.4110 -0.1328  0.4044
  395EMI    H0F 7499   1.433   3.415   2.126  1.8215 -0.3039  2.8143
  395EMI    C0N 7500   1.420   3.268   1.961 -0.2837  0.4468  0.5708
  395EMI    H0O 7501   1.458   3.325   1.877 -2.2654  0.7667 -0.1605
  395EMI    H0P 7502   1.451   3.164   1.957  0.7811  0.7310  1.1777
  395EMI    H0Q 7503   1.312   3.257   1.956 -0.1052 -1.0452 -3.3368
  395EMI    N02 7504   1.626   3.361   2.078  0.5044 -0.1948 -0.5839
  395EMI    H0E 7505   1.468   3.258   2.168  0.8276 -1.9430 -0.9821
  396EMI    C01 7506   4.675   2.458   1.315 -0.2999 -0.2601 -0.4025
  396EMI    C04 7507   4.825   2.450   1.165  0.3428 -0.5535  0.0817
  396EMI    C03 7508   4.832   2.336   1.235  0.2664  0.2248 -0.4179
  396EMI    H07 7509   4.615   2.510   1.387 -1.5495 -0.4707 -1.2686
  396EMI    H09 7510   4.895   2.481   1.091  0.8633 -2.0396 -0.0723
  396EMI    H08 7511   4.897   2.251   1.233  0.2134  0.1961 -1.2008
  396EMI    C05 7512   4.700   2.249   1.439  0.4951  0.5107  0.0317
  396EMI    H0B 7513   4.781   2.181   1.460 -1.2637 -1.7490 -0.0480
  396EMI    H0C 7514   4.671   2.306   1.526  2.3314  0.8132  0.4774
  396EMI    H0D 7515   4.607   2.194   1.429 -0.3632  1.9356 -0.1101
  396EMI    N00 7516   4.730   2.338   1.326  0.4894  0.4045  0.3071
  396EMI    C06 7517   4.671   2.649   1.151 -0.5957 -0.1111  0.8067
  396EMI    H0F 7518   4.565   2.654   1.166 -0.7240 -0.6952  0.1366
  396EMI    C0N 7519   4.739   2.771   1.224 -0.4195 -0.1246 -0.4152
  396EMI    H0O 7520   4.830   2.798   1.172 -0.0445 -0.5177  0.0300
  396EMI    H0P 7521   4.671   2.855   1.220  0.8882  0.9310 -2.8351
  396EMI    H0Q 7522   4.773   2.748   1.324  0.8884 -0.4365 -0.9140
  396EMI    N02 7523   4.713   2.516   1.207 -0.2130 -0.0214 -0.6703
  396EMI    H0E 7524   4.684   2.640   1.044 -0.2458  1.0657  0.7436
  397EMI    C01 7525   0.916   0.519   4.218  0.3609 -0.3276 -0.2416
  397EMI    C04 7526   0.924   0.648   4.390  0.1195  0.1952 -0.5937
  397EMI    C03 7527   0.812   0.677   4.314  0.3560  0.3922 -0.8418
  397EMI    H07 7528   0.944   0.440   4.152  1.2304 -0.0571 -0.2191
  397EMI    H09 7529   0.956   0.696   4.480  0.0757 -1.4826  0.3514
  397EMI    H08 7530   0.739   0.754   4.319  1.2651  1.3120 -1.4299
  397EMI    C05 7531   0.712   0.606   4.094  0.0670 -0.7831  0.0272
  397EMI    H0B 7532   0.713   0.709   4.061 -2.1984 -0.5743  0.4647
  397EMI    H0C 7533   0.741   0.546   4.009  2.1484 -1.0222  0.8489
  397EMI    H0D 7534   0.614   0.576   4.128 -0.2886  0.4370  0.1207
  397EMI    N00 7535   0.811   0.599   4.203  0.0004 -0.5329  0.5664
  397EMI    C06 7536   1.129   0.500   4.350 -0.0688 -0.4679 -1.1482
  397EMI    H0F 7537   1.204   0.572   4.382  1.0271 -2.4294  1.0536
  397EMI    C0N 7538   1.127   0.398   4.457  0.5101 -0.0082  0.0868
  397EMI    H0O 7539   1.228   0.361   4.466  0.9778  1.4175  1.0379
  397EMI    H0P 7540   1.101   0.438   4.555  0.3279  1.1094 -0.4045
  397EMI    H0Q 7541   1.048   0.330   4.427 -0.9592  1.5279  0.2964
  397EMI    N02 7542   0.997   0.559   4.317 -0.4906  0.1672  0.1106
  397EMI    H0E 7543   1.180   0.470   4.260  4.1841  1.0126  0.4622
  398EMI    C01 7544   3.552   4.898   1.353 -0.0184  0.3169  0.5686
  398EMI    C04 7545   3.512   5.042   1.509  0.4673 -0.2901  0.2098
  398EMI    C03 7546   3.513   5.108   1.393  0.6727 -0.0868  0.1019
  398EMI    H07 7547   3.565   4.803   1.306 -2.2906  0.3479 -0.2376
  398EMI    H09 7548   3.496   5.080   1.608  1.0418 -0.5041  0.3895
  398EMI    H08 7549   3.509   5.213   1.373  1.1236  0.8860  4.2348
  398EMI    C05 7550   3.563   5.037   1.147  0.5989 -0.5031 -0.6662
  398EMI    H0B 7551   3.476   5.056   1.086 -1.1008  1.1660  2.0854
  398EMI    H0C 7552   3.628   5.122   1.132  0.4579  0.5011  3.3262
  398EMI    H0D 7553   3.617   4.953   1.105  2.2542  0.4929 -0.6091
  398EMI    N00 7554   3.540   5.011   1.296 -0.1012 -0.2388  0.7914
  398EMI    C06 7555   3.510   4.798   1.582  0.6523 -0.3152 -0.3417
  398EMI    H0F 7556   3.560   4.823   1.675 -0.0645 -0.3474  0.0684
  398EMI    C0N 7557   3.371   4.748   1.594 -0.4028  0.2862  0.1469
  398EMI    H0O 7558   3.311   4.806   1.525  0.2634  1.0666  0.2120
  398EMI    H0P 7559   3.370   4.640   1.579  1.0694  0.0256  1.6234
  398EMI    H0Q 7560   3.325   4.771   1.689 -0.3397  0.4765  0.1318
  398EMI    N02 7561   3.522   4.908   1.480  0.1985 -0.0229  0.2694
  398EMI    H0E 7562   3.573   4.716   1.550  0.2376  0.1283 -2.3892
  399EMI    C01 7563   0.174   1.776   0.321 -0.1588 -0.4926 -0.0575
  399EMI    C04 7564   0.327   1.699   0.462  0.7742  0.2343 -0.4541
  399EMI    C03 7565   0.363   1.665   0.339  0.0663  0.0026  0.7782
  399EMI    H07 7566   0.088   1.823   0.279 -0.6755 -1.3682  0.0003
  399EMI    H09 7567   0.377   1.674   0.553  1.8645 -3.8635 -1.9066
  399EMI    H08 7568   0.454   1.612   0.321  1.6101  1.5911  3.2907
  399EMI    C05 7569   0.275   1.699   0.104 -0.1600 -0.2862  0.8130
  399EMI    H0B 7570   0.186   1.725   0.049  0.4642 -0.2527 -0.2149
  399EMI    H0C 7571   0.364   1.752   0.074  1.8571 -3.5779  0.4652
  399EMI    H0D 7572   0.292   1.593   0.089 -1.5228 -0.7190  2.0672
  399EMI    N00 7573   0.265   1.709   0.251  0.0731  0.0216 -0.5587
  399EMI    C06 7574   0.146   1.840   0.558  0.2420  0.2817  0.6288
  399EMI    H0F 7575   0.117   1.770   0.635 -0.5231  0.1714  0.2440
  399EMI    C0N 7576   0.210   1.969   0.615 -0.4028  0.3724  0.9400
  399EMI    H0O 7577   0.233   2.034   0.532  1.9661 -1.7607 -0.2308
  399EMI    H0P 7578   0.142   2.016   0.684 -2.3720  0.9485 -1.2866
  399EMI    H0Q 7579   0.308   1.943   0.656 -0.0638 -2.7919 -1.4379
  399EMI    N02 7580   0.213   1.775   0.447 -1.1153 -0.2983  0.5129
  399EMI    H0E 7581   0.043   1.860   0.536 -0.3219  0.3758  3.0823
  400EMI    C01 7582   2.177   1.981   4.770  0.1189 -0.8854  0.3531
  400EMI    C04 7583   2.122   2.156   4.649  0.0277  0.0665  1.0815
  400EMI    C03 7584   2.021   2.069   4.631 -0.7275 -0.0023  0.0558
  400EMI    H07 7585   2.237   1.908   4.821 -0.3521 -1.7284 -0.2705
  400EMI    H09 7586   2.138   2.242   4.588 -0.4672 -0.2579  0.4776
  400EMI    H08 7587   1.938   2.080   4.564 -0.4390  0.3318 -0.2518
  400EMI    C05 7588   1.994   1.825   4.693 -0.2795  0.0381 -0.2292
  400EMI    H0B 7589   1.905   1.819   4.753 -0.7493 -1.8918 -1.0697
  400EMI    H0C 7590   1.969   1.796   4.593 -0.6959  0.0329 -0.1243
  400EMI    H0D 7591   2.064   1.754   4.736 -2.1774 -1.4295  0.5661
  400EMI    N00 7592   2.064   1.955   4.701  0.0687 -0.2223 -0.7001
  400EMI    C06 7593   2.344   2.158   4.760  0.1226  0.2047  0.5840
  400EMI    H0F 7594   2.411   2.081   4.794  0.2621  0.2469  0.4093
  400EMI    C0N 7595   2.411   2.217   4.638 -0.5688 -0.4788  0.0769
  400EMI    H0O 7596   2.401   2.165   4.544  2.3014  0.4315 -0.8278
  400EMI    H0P 7597   2.369   2.315   4.616  0.8032  0.3717  1.0903
  400EMI    H0Q 7598   2.514   2.226   4.669 -0.5962 -4.0503  1.7317
  400EMI    N02 7599   2.211   2.102   4.732  0.1650  0.0560 -0.1231
  400EMI    H0E 7600   2.333   2.238   4.832  0.5928  1.4211 -0.6366
  401EMI    C01 7601   1.916   0.648   0.811  1.1498 -0.0741  0.2529
  401EMI    C04 7602   2.106   0.681   0.897  0.2213 -0.1059 -0.4818
  401EMI    C03 7603   2.033   0.788   0.914  0.1640 -0.4782  0.0255
  401EMI    H07 7604   1.830   0.600   0.769  0.6653  0.6306  0.4152
  401EMI    H09 7605   2.203   0.651   0.930 -0.0360  0.3137  0.7417
  401EMI    H08 7606   2.041   0.883   0.962 -2.2215  0.0364 -0.4725
  401EMI    C05 7607   1.800   0.860   0.852  0.1925 -0.8042  0.3459
  401EMI    H0B 7608   1.832   0.959   0.881 -0.7063 -0.7791  1.2859
  401EMI    H0C 7609   1.746   0.873   0.760  2.7875 -0.0140 -1.1836
  401EMI    H0D 7610   1.730   0.826   0.927 -1.0444 -1.6613 -1.1453
  401EMI    N00 7611   1.916   0.770   0.851 -0.1491 -0.0053 -0.2961
  401EMI    C06 7612   2.054   0.444   0.840 -0.3820 -0.2906 -0.1856
  401EMI    H0F 7613   2.151   0.431   0.794 -0.1777  0.7792 -0.0953
  401EMI    C0N 7614   2.054   0.396   0.982 -0.5705 -0.5366  0.0136
  401EMI    H0O 7615   1.978   0.320   0.993 -0.4513 -0.4853  1.3950
  401EMI    H0P 7616   2.150   0.354   1.011 -0.6385 -1.1995 -0.7017
  401EMI    H0Q 7617   2.043   0.473   1.057  1.2551 -0.8200  0.6382
  401EMI    N02 7618   2.025   0.587   0.845  0.1142  0.2501  0.0187
  401EMI    H0E 7619   1.980   0.388   0.785  0.3060  0.4206 -1.9009
  402EMI    C01 7620   1.089   1.708   3.665 -0.8168 -0.1766 -0.4180
  402EMI    C04 7621   1.249   1.673   3.806 -0.0603 -0.6705 -0.0402
  402EMI    C03 7622   1.286   1.786   3.746  0.5753  0.8062  0.3444
  402EMI    H07 7623   0.997   1.698   3.612 -1.8163  2.3877  0.6314
  402EMI    H09 7624   1.289   1.624   3.892  0.8274  2.0775  1.2315
  402EMI    H08 7625   1.374   1.847   3.754  0.7830  0.5921 -0.2654
  402EMI    C05 7626   1.205   1.866   3.515 -0.3284 -0.3680 -0.0375
  402EMI    H0B 7627   1.292   1.929   3.524  0.0320 -0.7424 -0.7928
  402EMI    H0C 7628   1.210   1.793   3.436  1.5653 -0.4401  0.1032
  402EMI    H0D 7629   1.110   1.919   3.512 -0.3248 -0.2173  1.7188
  402EMI    N00 7630   1.190   1.792   3.640  0.5382  0.1998 -0.5975
  402EMI    C06 7631   1.044   1.529   3.821  0.0965  0.4736  0.2540
  402EMI    H0F 7632   0.978   1.574   3.894  0.8641  1.8748  0.1189
  402EMI    C0N 7633   0.968   1.443   3.720 -0.0693  0.2140  0.4167
  402EMI    H0O 7634   1.035   1.366   3.683 -0.4024 -0.5963  1.4509
  402EMI    H0P 7635   0.881   1.393   3.760 -0.8188  1.0524 -0.1360
  402EMI    H0Q 7636   0.929   1.497   3.634 -1.0590 -2.8596 -1.1966
  402EMI    N02 7637   1.124   1.637   3.767 -0.1659 -0.4107 -0.0991
  402EMI    H0E 7638   1.103   1.459   3.877 -0.0694  0.7547  0.7866
  403EMI    C01 7639   1.044   3.834   1.168  0.1990  0.3326  0.4793
  403EMI    C04 7640   1.264   3.813   1.175 -0.2960 -0.2838 -0.0612
  403EMI    C03 7641   1.226   3.914   1.092 -0.0508 -0.0950  0.1275
  403EMI    H07 7642   0.943   3.803   1.185 -0.2135 -2.1116 -4.5669
  403EMI    H09 7643   1.357   3.780   1.216 -0.7791 -0.0613  1.2655
  403EMI    H08 7644   1.292   3.988   1.052 -1.0205  0.4269 -0.5492
  403EMI    C05 7645   1.012   4.008   0.984  0.2664 -0.1542 -0.4285
  403EMI    H0B 7646   1.034   3.983   0.881 -0.7559 -2.5154 -0.1397
  403EMI    H0C 7647   0.907   4.024   0.999  0.6253  3.4211 -0.9403
  403EMI    H0D 7648   1.062   4.102   1.002 -0.1519 -0.2034  1.1066
  403EMI    N00 7649   1.090   3.917   1.078  0.5845 -0.2310 -0.0078
  403EMI    C06 7650   1.125   3.640   1.291 -0.7953  0.2028  0.1122
  403EMI    H0F 7651   1.068   3.574   1.228 -1.4380  0.5258  0.3391
  403EMI    C0N 7652   1.255   3.571   1.341 -0.2167 -0.5820  0.1180
  403EMI    H0O 7653   1.313   3.562   1.250 -0.8442  1.2547 -0.4952
  403EMI    H0P 7654   1.293   3.635   1.420 -1.0996 -1.2791  1.1621
  403EMI    H0Q 7655   1.227   3.476   1.386 -1.4177 -0.3243 -0.0528
  403EMI    N02 7656   1.142   3.759   1.209 -0.9164 -0.2555 -0.0088
  403EMI    H0E 7657   1.063   3.655   1.378  0.3739 -0.3063  1.0728
  404EMI    C01 7658   4.143   2.474   3.066  0.0886  0.1986  0.0348
  404EMI    C04 7659   4.055   2.285   3.136 -0.2399 -0.9014  0.1784
  404EMI    C03 7660   4.113   2.263   3.021  0.6248  0.1933  0.0303
  404EMI    H07 7661   4.177   2.575   3.069  2.6826 -0.6126  2.3980
  404EMI    H09 7662   4.006   2.210   3.196 -1.5664  0.0601  0.3458
  404EMI    H08 7663   4.120   2.166   2.977  0.7587  1.2457 -2.4091
  404EMI    C05 7664   4.248   2.383   2.845 -0.6530 -0.3003 -0.2223
  404EMI    H0B 7665   4.196   2.340   2.761 -1.5000  3.8292 -2.0826
  404EMI    H0C 7666   4.267   2.488   2.824 -0.0085 -0.5218 -0.7888
  404EMI    H0D 7667   4.353   2.358   2.856 -0.5826 -2.0105 -3.5377
  404EMI    N00 7668   4.175   2.377   2.975 -0.6662 -0.1591 -0.1120
  404EMI    C06 7669   4.003   2.490   3.283  0.2844  0.3393  0.2972
  404EMI    H0F 7670   3.915   2.434   3.309  0.8329 -0.3660  0.6496
  404EMI    C0N 7671   4.113   2.496   3.391 -0.1681  0.5902 -0.0206
  404EMI    H0O 7672   4.129   2.394   3.424  0.6964  1.7896  3.8050
  404EMI    H0P 7673   4.208   2.522   3.345 -1.3876  1.9230 -1.9549
  404EMI    H0Q 7674   4.081   2.560   3.472 -2.4885  0.0818 -0.4563
  404EMI    N02 7675   4.062   2.421   3.160  0.2864 -0.0414 -0.0404
  404EMI    H0E 7676   3.971   2.588   3.249  1.4010  0.4796 -0.4193
  405EMI    C01 7677   1.936   0.582   2.206  0.3382  0.4177 -0.4217
  405EMI    C04 7678   2.035   0.393   2.242 -0.0943 -0.4597 -0.1086
  405EMI    C03 7679   1.906   0.370   2.241  0.1372  0.1527 -0.0748
  405EMI    H07 7680   1.914   0.683   2.180 -0.4666  0.3809  0.1019
  405EMI    H09 7681   2.109   0.321   2.270 -0.1857 -0.7052 -0.4966
  405EMI    H08 7682   1.857   0.275   2.249  0.6028 -0.2163 -1.3565
  405EMI    C05 7683   1.693   0.511   2.195  0.3617  0.1292  0.3107
  405EMI    H0B 7684   1.638   0.434   2.247  0.5164 -1.7855 -2.1444
  405EMI    H0C 7685   1.670   0.610   2.229 -1.8444  0.0822 -0.9050
  405EMI    H0D 7686   1.663   0.498   2.092  0.0212 -1.0363  0.5367
  405EMI    N00 7687   1.841   0.490   2.213 -0.1790  0.3762 -0.1943
  405EMI    C06 7688   2.182   0.600   2.234 -0.3708  0.6981  0.3958
  405EMI    H0F 7689   2.246   0.574   2.151 -1.7335  0.9184 -0.7615
  405EMI    C0N 7690   2.157   0.745   2.242  0.1543 -0.0385 -0.0691
  405EMI    H0O 7691   2.112   0.787   2.152  2.5560  0.9587 -0.8864
  405EMI    H0P 7692   2.091   0.762   2.327  2.2028  1.3821  1.3267
  405EMI    H0Q 7693   2.243   0.810   2.256 -1.6060  2.4327 -0.0530
  405EMI    N02 7694   2.057   0.528   2.217 -0.4349 -0.1506  0.6703
  405EMI    H0E 7695   2.225   0.553   2.322  1.1987  1.0261 -0.1598
  406EMI    C01 7696   0.031   4.391   2.256 -0.1777  0.7191 -1.1083
  406EMI    C04 7697   0.047   4.310   2.055  0.3381  0.2463 -0.4693
  406EMI    C03 7698   0.007   4.211   2.131 -0.4350 -0.2669  0.0126
  406EMI    H07 7699   0.017   4.453   2.342 -0.2301 -0.4494 -0.2459
  406EMI    H09 7700   0.038   4.319   1.949 -0.7415 -0.8573 -0.4846
  406EMI    H08 7701  -0.026   4.114   2.099 -0.0756  0.3218 -2.3812
  406EMI    C05 7702  -0.017   4.179   2.378  0.3808 -0.0472 -0.1791
  406EMI    H0B 7703   0.065   4.116   2.409  0.2943 -0.5832 -1.0140
  406EMI    H0C 7704  -0.056   4.242   2.457 -1.2120  0.5159 -1.3536
  406EMI    H0D 7705  -0.091   4.105   2.351 -1.4456  0.9280  1.8154
  406EMI    N00 7706   0.010   4.256   2.261 -0.1200 -0.0205 -0.3825
  406EMI    C06 7707   0.070   4.565   2.073 -0.1570 -0.2737  0.1794
  406EMI    H0F 7708   0.095   4.628   2.157 -0.1766 -0.1282  0.0788
  406EMI    C0N 7709   0.187   4.571   1.974 -0.1657  0.4175 -0.4117
  406EMI    H0O 7710   0.196   4.487   1.905  0.2804  0.5220 -0.4872
  406EMI    H0P 7711   0.189   4.663   1.917 -0.2272  1.9052  1.8685
  406EMI    H0Q 7712   0.281   4.561   2.028  0.7006  1.5158 -1.6604
  406EMI    N02 7713   0.060   4.426   2.130  0.1381 -0.6151 -0.7520
  406EMI    H0E 7714  -0.029   4.595   2.042 -0.2835 -0.2439  0.6160
  407EMI    C01 7715   4.542   4.992   3.251  0.0025 -0.0406 -0.9618
  407EMI    C04 7716   4.436   4.815   3.212 -0.7548  0.2001  0.5413
  407EMI    C03 7717   4.429   4.834   3.341  0.0848 -0.1521  0.5451
  407EMI    H07 7718   4.591   5.086   3.234 -0.4253  0.2805 -0.4533
  407EMI    H09 7719   4.386   4.740   3.154 -1.0588  1.1520 -0.4770
  407EMI    H08 7720   4.374   4.780   3.415 -0.3178 -1.0442 -0.3864
  407EMI    C05 7721   4.536   5.004   3.503 -0.2596  0.3385  0.2716
  407EMI    H0B 7722   4.450   5.024   3.566  1.2598  2.6371  1.7385
  407EMI    H0C 7723   4.615   4.946   3.549  0.1226  0.9131  0.3466
  407EMI    H0D 7724   4.577   5.103   3.493  1.2518 -0.3781 -0.8819
  407EMI    N00 7725   4.503   4.947   3.369  0.2744 -0.5818  0.2482
  407EMI    C06 7726   4.544   4.936   3.016  0.5742  0.8055 -0.5110
  407EMI    H0F 7727   4.562   5.040   2.994  0.1650  1.2941  1.2815
  407EMI    C0N 7728   4.663   4.864   2.972 -0.4866  0.0345  0.1962
  407EMI    H0O 7729   4.676   4.874   2.865 -1.1657 -0.5956  0.0513
  407EMI    H0P 7730   4.755   4.899   3.019 -1.4235  0.3794  1.8211
  407EMI    H0Q 7731   4.656   4.759   2.997  1.9263 -0.3596 -0.5117
  407EMI    N02 7732   4.520   4.909   3.161 -0.3540  0.1999  0.4145
  407EMI    H0E 7733   4.448   4.927   2.968  0.3400 -0.2537  0.1199
  408EMI    C01 7734   2.397   3.028   1.026  0.1736 -0.0866  0.3354
  408EMI    C04 7735   2.593   2.940   1.043 -0.1558 -0.0036 -0.2377
  408EMI    C03 7736   2.595   3.044   1.122  0.4142  0.4875 -0.1330
  408EMI    H07 7737   2.293   3.044   1.009  0.4835  0.5679 -1.1374
  408EMI    H09 7738   2.673   2.870   1.033 -0.9037 -1.0080  0.6108
  408EMI    H08 7739   2.673   3.084   1.183  0.9261  0.1114 -0.5356
  408EMI    C05 7740   2.416   3.217   1.187  0.0142  0.3010  0.7212
  408EMI    H0B 7741   2.409   3.199   1.293 -0.5835  0.0896  0.6536
  408EMI    H0C 7742   2.488   3.289   1.152 -0.9661 -0.0283 -2.3377
  408EMI    H0D 7743   2.313   3.227   1.158 -0.0745 -1.6992  0.1980
  408EMI    N00 7744   2.471   3.103   1.110  0.2493 -0.1014 -0.0687
  408EMI    C06 7745   2.433   2.818   0.880 -0.0670  0.0777 -0.5001
  408EMI    H0F 7746   2.474   2.851   0.786  0.8235 -0.5535 -0.3376
  408EMI    C0N 7747   2.489   2.682   0.934 -0.0997 -0.7861  0.0590
  408EMI    H0O 7748   2.416   2.602   0.927 -0.0682 -0.6618 -3.7852
  408EMI    H0P 7749   2.574   2.652   0.874 -0.8499 -2.6800 -0.1229
  408EMI    H0Q 7750   2.521   2.715   1.032  1.0961  1.4206 -1.0089
  408EMI    N02 7751   2.473   2.927   0.976  0.3793  0.0068  0.5557
  408EMI    H0E 7752   2.325   2.823   0.886  0.0291  0.2775  1.5817
  409EMI    C01 7753   1.641   3.410   4.369  0.0398  0.6862  0.2990
  409EMI    C04 7754   1.816   3.358   4.485  0.0811 -0.4378  0.2426
  409EMI    C03 7755   1.739   3.249   4.472 -0.0828  0.3393  0.2245
  409EMI    H07 7756   1.577   3.474   4.312 -0.0920  0.1456 -0.1712
  409EMI    H09 7757   1.901   3.377   4.547 -0.3529  0.0183  0.7112
  409EMI    H08 7758   1.751   3.152   4.515 -1.1403  0.6367  1.2501
  409EMI    C05 7759   1.531   3.174   4.361  0.3068  0.3696 -0.3240
  409EMI    H0B 7760   1.580   3.089   4.316 -2.3597 -0.3494 -2.1158
  409EMI    H0C 7761   1.498   3.146   4.460  0.2888 -0.1305 -0.4689
  409EMI    H0D 7762   1.441   3.209   4.312 -2.8009 -1.6491  3.3830
  409EMI    N00 7763   1.633   3.275   4.388 -0.3410 -0.6479  0.1056
  409EMI    C06 7764   1.798   3.596   4.417  0.2929 -0.2339  0.4123
  409EMI    H0F 7765   1.755   3.650   4.335  3.1341  1.9341  0.1951
  409EMI    C0N 7766   1.776   3.662   4.552 -1.0395 -0.2551 -0.2141
  409EMI    H0O 7767   1.841   3.620   4.628 -0.8737  0.4913  0.0615
  409EMI    H0P 7768   1.809   3.765   4.543  0.0288 -0.4236  1.3681
  409EMI    H0Q 7769   1.672   3.656   4.582 -0.6893  0.8223  1.3431
  409EMI    N02 7770   1.757   3.459   4.412  0.5011 -0.1430  0.0302
  409EMI    H0E 7771   1.901   3.590   4.386  0.3498  1.4643  0.1956
  410EMI    C01 7772   1.360   3.017   1.435 -0.3234  0.0622 -0.6362
  410EMI    C04 7773   1.220   2.971   1.272 -0.2577 -0.0577  0.2767
  410EMI    C03 7774   1.254   2.855   1.324  0.9168 -0.1837  0.0337
  410EMI    H07 7775   1.398   3.071   1.519 -0.3232 -0.7808 -0.0868
  410EMI    H09 7776   1.168   2.995   1.182  0.2821 -0.7810 -0.2334
  410EMI    H08 7777   1.214   2.756   1.313  0.0141  0.1356  0.3216
  410EMI    C05 7778   1.411   2.786   1.504  0.1071 -0.4844 -0.2605
  410EMI    H0B 7779   1.368   2.774   1.602  1.7289  2.3376  0.9126
  410EMI    H0C 7780   1.415   2.693   1.449 -0.1198 -0.1115 -0.9137
  410EMI    H0D 7781   1.513   2.823   1.508 -0.6058  1.7201 -1.0751
  410EMI    N00 7782   1.346   2.884   1.422 -0.1412  0.5158  0.1604
  410EMI    C06 7783   1.288   3.213   1.279 -0.4671 -0.4177 -0.4967
  410EMI    H0F 7784   1.336   3.279   1.351 -0.6773 -0.3397 -0.4279
  410EMI    C0N 7785   1.359   3.223   1.146  0.1340 -0.5259  0.3236
  410EMI    H0O 7786   1.313   3.165   1.067 -1.2214  0.1798  0.5619
  410EMI    H0P 7787   1.378   3.326   1.119  0.2036 -0.6611 -0.1426
  410EMI    H0Q 7788   1.458   3.179   1.155  0.5684  0.2989 -0.3355
  410EMI    N02 7789   1.293   3.070   1.330 -0.2584 -0.2530 -0.3668
  410EMI    H0E 7790   1.185   3.246   1.277 -0.7939 -1.3513  0.3135
  411EMI    C01 7791   3.226   1.810   3.265 -0.5548  0.0360  1.1212
  411EMI    C04 7792   3.056   1.687   3.244 -0.3117  0.1424  0.5584
  411EMI    C03 7793   3.069   1.706   3.373 -0.1459 -0.0238 -0.2875
  411EMI    H07 7794   3.321   1.852   3.237  0.3413 -2.9214 -0.7402
  411EMI    H09 7795   2.985   1.625   3.195 -2.8854  1.3401  2.5342
  411EMI    H08 7796   3.014   1.658   3.451  1.0419  0.3215  0.8039
  411EMI    C05 7797   3.252   1.813   3.518 -0.0052 -0.2061 -0.4481
  411EMI    H0B 7798   3.197   1.780   3.605 -0.5720  1.6303 -0.0661
  411EMI    H0C 7799   3.356   1.784   3.511 -0.1976 -1.3623  0.9615
  411EMI    H0D 7800   3.255   1.920   3.533 -0.8189  0.1476 -2.4802
  411EMI    N00 7801   3.186   1.780   3.390  0.4494 -0.8200 -0.3149
  411EMI    C06 7802   3.181   1.740   3.035  0.0178  0.7947  0.1065
  411EMI    H0F 7803   3.280   1.708   3.005  0.9111  2.6359  0.9354
  411EMI    C0N 7804   3.084   1.639   2.964  0.4704 -0.6784  0.2280
  411EMI    H0O 7805   2.980   1.660   2.984  1.0202  0.5564  2.0946
  411EMI    H0P 7806   3.078   1.653   2.857 -1.6345  0.2916  0.4230
  411EMI    H0Q 7807   3.102   1.534   2.984 -0.1735 -0.7853  0.2706
  411EMI    N02 7808   3.159   1.741   3.177  0.5007  0.1476 -0.5275
  411EMI    H0E 7809   3.146   1.837   3.001 -0.9722  0.8305  1.1920
  412EMI    C01 7810   1.984   2.923   1.879  0.2681 -0.8219 -0.3025
  412EMI    C04 7811   2.168   3.030   1.846  0.1855  0.4422 -0.6026
  412EMI    C03 7812   2.084   3.064   1.747 -0.5283 -0.4453  0.2748
  412EMI    H07 7813   1.905   2.862   1.916 -2.0993  0.1569 -3.3774
  412EMI    H09 7814   2.268   3.063   1.864 -0.2690  2.2047 -1.1017
  412EMI    H08 7815   2.099   3.128   1.663 -3.0558  0.4757  0.4392
  412EMI    C05 7816   1.852   3.008   1.682  0.6851  0.3620 -0.0639
  412EMI    H0B 7817   1.827   3.112   1.670 -2.0102 -0.0968  0.8106
  412EMI    H0C 7818   1.880   2.956   1.592  0.6328 -1.7506  1.0667
  412EMI    H0D 7819   1.769   2.959   1.730 -0.6490  3.1869  0.7063
  412EMI    N00 7820   1.972   2.992   1.769  0.0852 -0.5600  0.5258
  412EMI    C06 7821   2.164   2.892   2.054  0.1068  0.5295  0.2987
  412EMI    H0F 7822   2.074   2.872   2.110  0.8142  1.4603  1.8259
  412EMI    C0N 7823   2.272   2.788   2.038 -0.0983  0.0118 -0.3682
  412EMI    H0O 7824   2.353   2.824   1.976  0.8038  0.9765  1.3051
  412EMI    H0P 7825   2.318   2.773   2.135 -1.7343  1.5723  0.7197
  412EMI    H0Q 7826   2.239   2.692   2.000 -0.3987  0.0264 -0.1500
  412EMI    N02 7827   2.108   2.938   1.923 -0.1505  0.3027  0.4057
  412EMI    H0E 7828   2.200   2.982   2.102  1.7994  0.6136 -1.0176
  413EMI    C01 7829   0.630   3.636   2.175  1.5476 -0.0464  0.5720
  413EMI    C04 7830   0.749   3.548   2.028 -0.0077 -1.0275 -0.2947
  413EMI    C03 7831   0.671   3.448   2.074 -0.4893  0.4865  0.3639
  413EMI    H07 7832   0.572   3.710   2.225 -1.0108 -0.6415 -1.3257
  413EMI    H09 7833   0.820   3.548   1.948  0.8317 -1.7491  0.4224
  413EMI    H08 7834   0.666   3.348   2.037 -1.2078  0.0564  1.5901
  413EMI    C05 7835   0.513   3.430   2.256 -0.2786 -0.7757  0.2977
  413EMI    H0B 7836   0.571   3.357   2.311 -0.1174 -0.4386  0.5780
  413EMI    H0C 7837   0.464   3.497   2.324 -0.4457  0.9089 -1.3961
  413EMI    H0D 7838   0.440   3.386   2.188  0.1800  1.1007 -1.5001
  413EMI    N00 7839   0.599   3.505   2.172  0.0402  0.1794  0.1127
  413EMI    C06 7840   0.773   3.792   2.057  0.0694  0.7650 -0.2692
  413EMI    H0F 7841   0.864   3.806   2.112  0.0430 -0.2312  0.0483
  413EMI    C0N 7842   0.802   3.811   1.912 -0.0089 -0.3532  0.0596
  413EMI    H0O 7843   0.889   3.757   1.877 -0.0879 -2.0075  2.2220
  413EMI    H0P 7844   0.724   3.770   1.849  0.2891  1.7586 -1.8340
  413EMI    H0Q 7845   0.816   3.913   1.877 -0.8730 -0.3293 -0.2326
  413EMI    N02 7846   0.722   3.663   2.094  0.1968  0.5996 -0.3189
  413EMI    H0E 7847   0.707   3.871   2.092 -0.0299  1.5008 -2.0132
  414EMI    C01 7848   3.249   3.890   2.137  0.3565  0.3299  0.0517
  414EMI    C04 7849   3.120   4.045   2.051 -0.3110 -0.0411  0.5356
  414EMI    C03 7850   3.245   4.091   2.065  0.1390 -0.0468  0.7581
  414EMI    H07 7851   3.287   3.796   2.172  2.8735  1.5721  0.9708
  414EMI    H09 7852   3.032   4.092   2.013 -0.2978 -0.4574 -0.0215
  414EMI    H08 7853   3.280   4.189   2.040 -0.4742 -0.2094 -0.8585
  414EMI    C05 7854   3.466   4.002   2.142  0.1624  0.1718 -0.0988
  414EMI    H0B 7855   3.491   3.994   2.247 -1.4308 -0.1803  0.2753
  414EMI    H0C 7856   3.501   3.912   2.093 -1.8090 -1.6191  1.5998
  414EMI    H0D 7857   3.524   4.085   2.105 -2.0293  1.4058 -0.9037
  414EMI    N00 7858   3.320   3.997   2.119  0.2487  0.1967 -0.4592
  414EMI    C06 7859   3.012   3.824   2.091 -0.5322  0.2720  0.6289
  414EMI    H0F 7860   2.924   3.871   2.132 -0.8504  0.8707 -0.6831
  414EMI    C0N 7861   2.985   3.783   1.946 -0.0414 -0.1700 -0.5348
  414EMI    H0O 7862   2.945   3.683   1.948 -1.7407  0.4359  3.1711
  414EMI    H0P 7863   2.912   3.845   1.894  1.5972 -0.3546 -3.2743
  414EMI    H0Q 7864   3.078   3.776   1.891 -0.0991  0.4710 -0.7308
  414EMI    N02 7865   3.127   3.913   2.094  0.1400 -0.0576  0.7405
  414EMI    H0E 7866   3.042   3.735   2.145  2.6959  1.3867  0.9149
  415EMI    C01 7867   1.486   3.595   0.892  0.4727 -0.4508 -0.4047
  415EMI    C04 7868   1.644   3.746   0.907  0.2679  0.3517  0.1753
  415EMI    C03 7869   1.528   3.812   0.889 -0.0112  0.3172 -0.3954
  415EMI    H07 7870   1.437   3.500   0.899  0.2080 -0.2825  0.0702
  415EMI    H09 7871   1.747   3.772   0.916  0.4257 -0.1811 -0.0743
  415EMI    H08 7872   1.513   3.918   0.881  0.4553  0.4967  0.8896
  415EMI    C05 7873   1.296   3.742   0.815 -0.0107  0.3831  0.2474
  415EMI    H0B 7874   1.267   3.843   0.839 -0.7285 -0.0250  1.1608
  415EMI    H0C 7875   1.307   3.723   0.709 -0.9976  1.8851 -0.1517
  415EMI    H0D 7876   1.220   3.675   0.852 -2.8851  2.3089 -1.6911
  415EMI    N00 7877   1.429   3.717   0.875 -0.0285 -0.6190  0.2354
  415EMI    C06 7878   1.714   3.523   0.980 -0.4959 -0.1211 -0.3283
  415EMI    H0F 7879   1.781   3.602   1.012 -2.0219  1.3474 -0.5881
  415EMI    C0N 7880   1.658   3.449   1.092  0.0611  0.1567 -0.6060
  415EMI    H0O 7881   1.738   3.391   1.136 -1.3336 -0.6681  0.9743
  415EMI    H0P 7882   1.627   3.513   1.174  1.5566 -1.5329  1.3816
  415EMI    H0Q 7883   1.584   3.380   1.054 -0.3514  1.7067 -2.8341
  415EMI    N02 7884   1.610   3.610   0.922 -0.9114 -0.9911  0.3739
  415EMI    H0E 7885   1.770   3.458   0.914  0.5472 -1.3686  1.6836
  416EMI    C01 7886   1.471   2.191   2.909  0.2337  0.6437  0.5972
  416EMI    C04 7887   1.292   2.221   3.012  0.2661  0.4147 -0.5204
  416EMI    C03 7888   1.353   2.116   3.071  0.2762 -0.1578  0.0439
  416EMI    H07 7889   1.553   2.206   2.841 -0.6635  1.6873 -0.2957
  416EMI    H09 7890   1.198   2.263   3.038 -0.6607 -0.1150 -2.7720
  416EMI    H08 7891   1.332   2.065   3.163  1.0878 -0.7086 -0.0574
  416EMI    C05 7892   1.565   1.993   3.024 -0.3920 -0.0265  0.2947
  416EMI    H0B 7893   1.642   2.014   2.952  0.9167 -0.9953  1.3708
  416EMI    H0C 7894   1.603   1.996   3.125 -0.0342  0.7010  0.1397
  416EMI    H0D 7895   1.531   1.894   2.998 -2.4648  0.7265 -0.0684
  416EMI    N00 7896   1.463   2.092   2.995  0.3676  0.2561 -0.1677
  416EMI    C06 7897   1.318   2.360   2.800 -0.7004 -0.1922 -0.1127
  416EMI    H0F 7898   1.231   2.322   2.749 -1.3032  2.2691 -1.0484
  416EMI    C0N 7899   1.283   2.493   2.859  0.6885 -0.8450 -0.1702
  416EMI    H0O 7900   1.247   2.563   2.783  1.4532  0.0876  0.3101
  416EMI    H0P 7901   1.204   2.485   2.933  1.4700  0.7429  0.8846
  416EMI    H0Q 7902   1.371   2.539   2.901 -0.0956 -1.2687  2.0823
  416EMI    N02 7903   1.357   2.257   2.901 -0.5213 -0.2952  0.8429
  416EMI    H0E 7904   1.396   2.372   2.726  0.3723  0.8996  1.1383
  417EMI    C01 7905   2.756   1.216   3.287 -0.0299 -0.3557  0.1149
  417EMI    C04 7906   2.845   1.277   3.477 -0.0599 -0.2505 -0.1039
  417EMI    C03 7907   2.893   1.355   3.379  0.0156  0.1702 -0.2803
  417EMI    H07 7908   2.697   1.165   3.213 -2.0292  2.6630 -0.5405
  417EMI    H09 7909   2.852   1.278   3.584  0.4004  1.2725 -0.1205
  417EMI    H08 7910   2.958   1.440   3.378 -1.2769  1.2032 -0.3202
  417EMI    C05 7911   2.841   1.389   3.134 -0.6442 -0.3020  0.8132
  417EMI    H0B 7912   2.802   1.489   3.138  1.1412  0.3886  1.7408
  417EMI    H0C 7913   2.943   1.390   3.098 -0.4755 -1.9294  1.1556
  417EMI    H0D 7914   2.779   1.342   3.058 -0.6288  1.3872 -0.2945
  417EMI    N00 7915   2.827   1.325   3.264 -0.5814 -0.5461  0.5628
  417EMI    C06 7916   2.706   1.072   3.482 -0.2100  0.0193  0.1617
  417EMI    H0F 7917   2.618   1.100   3.538  0.1455  2.0154 -0.1901
  417EMI    C0N 7918   2.676   0.955   3.382  0.2461 -0.3729  0.2505
  417EMI    H0O 7919   2.589   0.971   3.319 -0.8007 -4.9773  0.1415
  417EMI    H0P 7920   2.770   0.942   3.330  0.3838  0.5948  0.2454
  417EMI    H0Q 7921   2.652   0.861   3.431 -0.1041  0.0388  0.8711
  417EMI    N02 7922   2.767   1.187   3.415  1.0712  0.0153 -0.7827
  417EMI    H0E 7923   2.777   1.015   3.539  1.3315 -0.4760 -2.1016
  418EMI    C01 7924   0.057   0.961   4.173 -0.0690  0.4894 -0.1319
  418EMI    C04 7925  -0.141   0.893   4.222 -0.1846 -0.0995  0.8306
  418EMI    C03 7926  -0.105   0.837   4.107 -0.1563  0.2299 -0.2036
  418EMI    H07 7927   0.145   1.021   4.179 -0.7727  1.8844 -2.4314
  418EMI    H09 7928  -0.227   0.868   4.280  0.6180  3.7380  4.1318
  418EMI    H08 7929  -0.145   0.759   4.046  0.8390 -1.9858  1.8306
  418EMI    C05 7930   0.084   0.846   3.945  0.1298 -0.2876  0.3841
  418EMI    H0B 7931   0.011   0.827   3.868 -0.1431  1.0867  0.2767
  418EMI    H0C 7932   0.128   0.939   3.913 -1.9261  1.2115  1.6248
  418EMI    H0D 7933   0.154   0.764   3.952 -0.0956 -0.6319 -1.0280
  418EMI    N00 7934   0.018   0.884   4.070  0.4931  0.5243 -0.0032
  418EMI    C06 7935  -0.032   1.032   4.394  0.5035  0.1287 -0.4440
  418EMI    H0F 7936  -0.056   1.138   4.395  1.5489  0.5246  4.2457
  418EMI    C0N 7937  -0.136   0.969   4.488 -0.3520 -0.3823  0.2376
  418EMI    H0O 7938  -0.238   1.001   4.467 -0.0875  1.9413  2.1303
  418EMI    H0P 7939  -0.137   0.861   4.493 -0.5742 -0.3151  3.1766
  418EMI    H0Q 7940  -0.117   1.002   4.589 -1.2248  1.8087 -0.2498
  418EMI    N02 7941  -0.038   0.972   4.261  0.4024  0.6607  0.2256
  418EMI    H0E 7942   0.052   0.993   4.449 -1.2355  0.0522  2.3238
  419EMI    C01 7943   3.701   2.165   3.213 -0.0788 -0.3503 -0.2509
  419EMI    C04 7944   3.595   2.043   3.358  0.4070 -0.3733 -0.4437
  419EMI    C03 7945   3.548   2.167   3.362 -0.1379 -0.3005 -0.2760
  419EMI    H07 7946   3.780   2.189   3.145  0.0954  0.8397  0.3526
  419EMI    H09 7947   3.583   1.963   3.427  1.0429 -0.8253 -0.8448
  419EMI    H08 7948   3.477   2.222   3.421 -0.3669 -0.2765 -0.5735
  419EMI    C05 7949   3.580   2.376   3.228 -0.0279 -0.0746 -0.1256
  419EMI    H0B 7950   3.474   2.386   3.250  0.1731 -1.4749  1.7173
  419EMI    H0C 7951   3.636   2.449   3.284 -1.0447  1.5333 -1.1342
  419EMI    H0D 7952   3.614   2.384   3.126  2.1002 -1.3998  0.4101
  419EMI    N00 7953   3.617   2.242   3.273 -0.2560 -0.0104 -0.1295
  419EMI    C06 7954   3.767   1.928   3.219  0.6663 -0.2265 -0.1765
  419EMI    H0F 7955   3.845   1.898   3.288  1.5598  1.1857 -0.5247
  419EMI    C0N 7956   3.655   1.830   3.179  0.7518  0.1015 -0.0972
  419EMI    H0O 7957   3.598   1.863   3.094 -2.1266 -0.2621  1.5806
  419EMI    H0P 7958   3.705   1.738   3.150  1.9708  1.2433 -1.8562
  419EMI    H0Q 7959   3.586   1.800   3.257  0.7991  0.2312 -0.0049
  419EMI    N02 7960   3.697   2.050   3.269 -0.5820 -0.0222  0.0988
  419EMI    H0E 7961   3.822   1.950   3.128  2.7991 -0.6632  0.9546
  420EMI    C01 7962   0.681   1.519   2.917 -0.4005 -0.8755 -0.7018
  420EMI    C04 7963   0.811   1.498   2.739 -0.2303 -0.3988  0.7043
  420EMI    C03 7964   0.830   1.621   2.789 -0.1748 -1.0833 -0.3358
  420EMI    H07 7965   0.620   1.497   3.002 -0.0587  0.1459 -0.1724
  420EMI    H09 7966   0.865   1.451   2.659 -0.4862 -0.2631  0.4489
  420EMI    H08 7967   0.909   1.690   2.772 -0.6991 -0.2640  0.4568
  420EMI    C05 7968   0.721   1.764   2.964 -0.1757 -0.8068 -0.0810
  420EMI    H0B 7969   0.815   1.779   3.016  0.1266 -0.3904 -0.7229
  420EMI    H0C 7970   0.712   1.850   2.899  4.1596  0.4767  0.6803
  420EMI    H0D 7971   0.651   1.757   3.045  0.1778  0.4831  0.3747
  420EMI    N00 7972   0.732   1.639   2.888 -0.0544 -0.3430 -0.0116
  420EMI    C06 7973   0.685   1.300   2.795 -0.9186 -0.7489  0.5385
  420EMI    H0F 7974   0.704   1.231   2.877  0.4189 -0.8737  0.1352
  420EMI    C0N 7975   0.542   1.301   2.747  0.3450 -0.0199 -0.1074
  420EMI    H0O 7976   0.523   1.390   2.688  0.3284  1.4220  1.9910
  420EMI    H0P 7977   0.521   1.209   2.693 -2.3508 -0.3173  1.2358
  420EMI    H0Q 7978   0.469   1.302   2.827  0.6138 -0.4209  0.1448
  420EMI    N02 7979   0.713   1.440   2.818 -0.3809 -0.4409 -0.0867
  420EMI    H0E 7980   0.750   1.279   2.712  1.8922  0.6131  2.2362
  421EMI    C01 7981   2.701   3.403   2.567  0.2070  0.3352 -0.1433
  421EMI    C04 7982   2.546   3.555   2.535  0.0176  0.3333 -0.0919
  421EMI    C03 7983   2.545   3.518   2.667 -0.6555 -0.3655  0.1451
  421EMI    H07 7984   2.769   3.321   2.553 -2.1613 -1.6250 -0.8421
  421EMI    H09 7985   2.482   3.620   2.480 -1.4127 -0.2731  0.7875
  421EMI    H08 7986   2.487   3.558   2.747  0.3860  1.2521  0.1404
  421EMI    C05 7987   2.660   3.333   2.811  0.5636  0.2009 -0.3939
  421EMI    H0B 7988   2.653   3.228   2.787  1.2903  0.2126 -0.6808
  421EMI    H0C 7989   2.762   3.354   2.840  1.0803 -0.9593 -1.2861
  421EMI    H0D 7990   2.593   3.360   2.891 -0.7738 -0.4769 -1.2497
  421EMI    N00 7991   2.635   3.411   2.681  0.3729 -1.3568 -0.3045
  421EMI    C06 7992   2.692   3.502   2.331  0.0737 -0.1778 -0.4943
  421EMI    H0F 7993   2.614   3.464   2.267 -2.1696 -0.3574  2.1844
  421EMI    C0N 7994   2.730   3.648   2.308 -0.1276 -0.3907 -0.9233
  421EMI    H0O 7995   2.640   3.706   2.323 -0.6884 -1.6851  1.0824
  421EMI    H0P 7996   2.807   3.681   2.377  0.8919 -0.8155 -1.8322
  421EMI    H0Q 7997   2.768   3.663   2.208  0.5816  0.2648 -0.5735
  421EMI    N02 7998   2.650   3.478   2.470  0.2489  0.0779 -0.3401
  421EMI    H0E 7999   2.780   3.441   2.317 -0.7383 -1.3487 -0.6343
  422EMI    C01 8000   4.807   4.593   3.521 -0.1178 -0.1826  0.7772
  422EMI    C04 8001   4.850   4.388   3.466  0.3010 -0.2768 -0.2774
  422EMI    C03 8002   4.921   4.418   3.572  0.1198  0.5709 -1.2132
  422EMI    H07 8003   4.759   4.687   3.535 -3.1746 -1.7190  1.5970
  422EMI    H09 8004   4.849   4.296   3.411  1.6809  0.3975 -1.4633
  422EMI    H08 8005   4.986   4.348   3.620  0.1251  2.2200  1.3682
  422EMI    C05 8006   4.945   4.633   3.715 -0.9895 -0.5007  0.0796
  422EMI    H0B 8007   4.897   4.729   3.722 -1.7493 -0.9650  1.9955
  422EMI    H0C 8008   4.907   4.586   3.805  1.3740 -0.2422  1.2783
  422EMI    H0D 8009   5.051   4.638   3.693 -1.1538  2.8548 -0.4930
  422EMI    N00 8010   4.894   4.550   3.603  0.3059 -0.1869 -0.0525
  422EMI    C06 8011   4.673   4.518   3.329  0.2026  0.3687  0.1202
  422EMI    H0F 8012   4.711   4.492   3.231  0.3174 -0.0200  0.2644
  422EMI    C0N 8013   4.548   4.440   3.348  0.7276  0.2564 -0.8249
  422EMI    H0O 8014   4.576   4.337   3.333  3.2504  0.4007  1.9170
  422EMI    H0P 8015   4.504   4.451   3.447  0.1394 -0.7622 -0.9572
  422EMI    H0Q 8016   4.487   4.477   3.266 -2.8189 -2.0005  0.5715
  422EMI    N02 8017   4.765   4.495   3.441 -0.0345 -0.5510  0.9558
  422EMI    H0E 8018   4.646   4.621   3.312 -0.7312 -0.1145 -1.5011
  423EMI    C01 8019   4.133   0.425   4.032 -1.1828 -0.8947 -0.2552
  423EMI    C04 8020   4.096   0.295   4.202 -0.3555 -0.1967 -0.0736
  423EMI    C03 8021   4.213   0.357   4.217 -0.2771  0.5146 -0.1076
  423EMI    H07 8022   4.108   0.483   3.945 -1.5414 -0.7263 -0.0408
  423EMI    H09 8023   4.053   0.224   4.269 -2.1086  0.5178 -0.3953
  423EMI    H08 8024   4.289   0.341   4.291 -1.3548 -1.1577  0.7116
  423EMI    C05 8025   4.348   0.519   4.083  0.1158 -0.1080 -0.1530
  423EMI    H0B 8026   4.447   0.476   4.078  0.0941 -0.0391 -2.0433
  423EMI    H0C 8027   4.332   0.601   4.015  2.3793  0.4834 -0.0264
  423EMI    H0D 8028   4.347   0.572   4.177 -1.0659 -0.4238  0.0257
  423EMI    N00 8029   4.240   0.432   4.105  0.2571  0.0921  0.1358
  423EMI    C06 8030   3.909   0.309   4.021  0.4065 -0.4468  0.2220
  423EMI    H0F 8031   3.903   0.204   3.996 -1.0159 -0.2990 -0.1521
  423EMI    C0N 8032   3.797   0.352   4.115  0.8592 -0.2514 -0.0771
  423EMI    H0O 8033   3.833   0.445   4.159  0.6275 -0.8235  1.3958
  423EMI    H0P 8034   3.709   0.361   4.053  0.4769 -2.0585  0.1565
  423EMI    H0Q 8035   3.774   0.286   4.198 -2.2815  0.0041 -0.6319
  423EMI    N02 8036   4.043   0.340   4.083  0.3093  0.6898  0.1068
  423EMI    H0E 8037   3.900   0.378   3.938  2.0867 -0.5623 -0.0840
  424EMI    C01 8038   3.818   4.120   3.255  0.8277  0.6220  0.1580
  424EMI    C04 8039   3.852   4.321   3.327 -0.2041  0.5954 -0.2181
  424EMI    C03 8040   3.919   4.240   3.402 -0.7718  0.6409 -0.1819
  424EMI    H07 8041   3.785   4.041   3.191  1.4022  1.4077 -1.1645
  424EMI    H09 8042   3.851   4.427   3.314  0.4431  0.4920 -1.2448
  424EMI    H08 8043   3.991   4.274   3.474  1.2683  1.1366 -2.3254
  424EMI    C05 8044   3.954   3.980   3.417  0.3168  0.5169  0.0239
  424EMI    H0B 8045   3.914   3.890   3.371  0.5827  0.2838  0.2476
  424EMI    H0C 8046   4.049   3.964   3.370 -1.1691 -1.0316 -2.7433
  424EMI    H0D 8047   3.957   3.968   3.524 -0.2272 -1.6793 -0.1381
  424EMI    N00 8048   3.895   4.107   3.359  0.0531  0.3509  0.4363
  424EMI    C06 8049   3.705   4.290   3.124 -0.7729 -0.1172 -0.1090
  424EMI    H0F 8050   3.676   4.203   3.069 -0.5472 -0.4634  0.3115
  424EMI    C0N 8051   3.591   4.356   3.194 -0.6987 -0.4031  0.1741
  424EMI    H0O 8052   3.504   4.359   3.129  1.0817  3.1471 -2.3504
  424EMI    H0P 8053   3.561   4.309   3.287 -0.5154  0.8101  0.8662
  424EMI    H0Q 8054   3.609   4.460   3.215  0.2361 -0.8012  1.5087
  424EMI    N02 8055   3.794   4.242   3.228  0.0112 -0.3148  0.0435
  424EMI    H0E 8056   3.760   4.358   3.061 -1.1850  1.1450  0.8472
  425EMI    C01 8057   1.882   4.281   3.623 -0.2843 -0.1574  0.0784
  425EMI    C04 8058   2.065   4.212   3.537 -0.4020  0.5977  0.9119
  425EMI    C03 8059   2.004   4.109   3.600 -0.3662 -0.4415 -0.2177
  425EMI    H07 8060   1.801   4.344   3.650 -0.1446 -0.0853  0.3318
  425EMI    H09 8061   2.155   4.208   3.479 -1.2736 -3.8655 -0.5580
  425EMI    H08 8062   2.033   4.007   3.604  0.2960 -0.2720 -0.5701
  425EMI    C05 8063   1.781   4.085   3.716  0.3588  0.4950 -1.0495
  425EMI    H0B 8064   1.805   3.979   3.708 -1.4816 -0.0541  0.1412
  425EMI    H0C 8065   1.774   4.109   3.821  0.0527  0.7635 -1.1307
  425EMI    H0D 8066   1.682   4.095   3.674  0.3209  0.5361 -0.9498
  425EMI    N00 8067   1.888   4.156   3.649  0.0667 -0.2120 -0.9397
  425EMI    C06 8068   2.010   4.457   3.493  0.0754 -0.2486  0.4235
  425EMI    H0F 8069   1.921   4.517   3.504  0.7257  1.2242 -1.7927
  425EMI    C0N 8070   2.133   4.530   3.552 -0.1961 -0.1540 -0.7880
  425EMI    H0O 8071   2.183   4.459   3.618 -1.8350  0.5933  1.3878
  425EMI    H0P 8072   2.194   4.569   3.472 -1.4585  0.7845 -1.3316
  425EMI    H0Q 8073   2.116   4.621   3.609 -0.4702 -1.6660  1.7057
  425EMI    N02 8074   1.990   4.323   3.561  0.0567 -0.4563 -0.1959
  425EMI    H0E 8075   2.014   4.444   3.385 -1.9723  1.9597  0.0085
  426EMI    C01 8076   4.470   2.573   2.383 -0.2232 -0.4690  0.1996
  426EMI    C04 8077   4.314   2.426   2.361  0.3442  0.6440 -0.1873
  426EMI    C03 8078   4.377   2.396   2.474 -0.3268 -0.3435 -0.2795
  426EMI    H07 8079   4.546   2.647   2.372  0.9145 -1.6006  0.1726
  426EMI    H09 8080   4.232   2.377   2.314 -1.2088  1.3364  1.6549
  426EMI    H08 8081   4.368   2.321   2.550  0.5782 -0.3417 -0.1670
  426EMI    C05 8082   4.560   2.510   2.600  0.1559 -0.7138 -0.3149
  426EMI    H0B 8083   4.519   2.489   2.697 -1.4707 -0.2396 -0.8731
  426EMI    H0C 8084   4.632   2.436   2.568  1.5185  0.5398 -0.2878
  426EMI    H0D 8085   4.598   2.609   2.579 -2.2178 -0.2503 -3.0038
  426EMI    N00 8086   4.460   2.502   2.493 -0.5436  0.5226 -0.3610
  426EMI    C06 8087   4.353   2.569   2.156 -0.6938  0.3491  0.7762
  426EMI    H0F 8088   4.392   2.662   2.118 -4.2506  1.1374 -1.4713
  426EMI    C0N 8089   4.398   2.466   2.056 -0.5258  0.0764 -0.4256
  426EMI    H0O 8090   4.363   2.494   1.958  0.7325  0.9679 -0.6457
  426EMI    H0P 8091   4.505   2.480   2.053 -0.3805 -1.0752 -1.4690
  426EMI    H0Q 8092   4.377   2.363   2.084  1.0902 -0.1790 -0.0356
  426EMI    N02 8093   4.374   2.539   2.301  0.3180  0.8507  0.3765
  426EMI    H0E 8094   4.251   2.601   2.140 -0.2333  2.2523  1.3619
  427EMI    C01 8095   4.063   2.665   1.054  0.4438  0.3644 -0.3665
  427EMI    C04 8096   4.139   2.468   1.008 -0.1070  0.5952  0.8026
  427EMI    C03 8097   4.241   2.545   1.023  0.3781  0.1264 -0.3018
  427EMI    H07 8098   4.000   2.746   1.083 -0.7269 -0.6515  0.0096
  427EMI    H09 8099   4.137   2.367   0.971 -0.0599  0.8145  0.1984
  427EMI    H08 8100   4.346   2.525   1.015  0.5679  0.9584 -0.0724
  427EMI    C05 8101   4.283   2.778   1.093 -0.2937  0.2957  0.1369
  427EMI    H0B 8102   4.218   2.857   1.128 -1.7224 -2.1234  3.5152
  427EMI    H0C 8103   4.351   2.760   1.175  1.9771  2.6905 -1.0893
  427EMI    H0D 8104   4.342   2.809   1.008  2.2317 -1.2983  1.1898
  427EMI    N00 8105   4.196   2.668   1.067  0.5783 -0.4992  0.5278
  427EMI    C06 8106   3.891   2.496   0.978  0.3918 -0.1157  0.4500
  427EMI    H0F 8107   3.816   2.574   0.980 -1.2182 -1.4319 -2.2295
  427EMI    C0N 8108   3.882   2.435   0.843  0.3050  0.7036 -0.3299
  427EMI    H0O 8109   3.874   2.510   0.765 -0.9124 -0.1883 -1.0891
  427EMI    H0P 8110   3.966   2.373   0.818 -0.3372 -0.0504 -0.6416
  427EMI    H0Q 8111   3.794   2.376   0.824  0.3242  0.9249 -1.1245
  427EMI    N02 8112   4.023   2.546   1.012  0.1566 -0.7024 -0.6881
  427EMI    H0E 8113   3.870   2.424   1.057  0.2111 -0.6059 -0.0331
  428EMI    C01 8114   1.380   4.045   4.500 -0.7838  0.4770 -0.1432
  428EMI    C04 8115   1.297   3.973   4.315 -0.4784 -0.0763 -0.2041
  428EMI    C03 8116   1.197   3.992   4.393  0.5912  0.5385  0.1224
  428EMI    H07 8117   1.440   4.068   4.586 -1.0693  0.9099 -0.0543
  428EMI    H09 8118   1.294   3.928   4.218  0.8154  0.7693 -0.6683
  428EMI    H08 8119   1.096   3.981   4.361  0.1417  1.3694  1.2176
  428EMI    C05 8120   1.168   4.079   4.626  0.0322 -0.3861 -0.8325
  428EMI    H0B 8121   1.242   4.072   4.704 -0.0292 -0.4265 -0.7778
  428EMI    H0C 8122   1.119   4.175   4.619 -0.0610 -0.4300 -0.7966
  428EMI    H0D 8123   1.093   4.001   4.632  1.3895 -1.9348 -2.6088
  428EMI    N00 8124   1.249   4.037   4.514  0.5368 -0.3530  0.1370
  428EMI    C06 8125   1.541   3.967   4.342 -0.8386 -1.4073  0.5924
  428EMI    H0F 8126   1.543   3.981   4.235 -0.0736 -0.0846  0.7601
  428EMI    C0N 8127   1.654   4.057   4.398 -0.1674  0.7571  0.0752
  428EMI    H0O 8128   1.672   4.055   4.505  0.4976  2.4498  0.0275
  428EMI    H0P 8129   1.745   4.025   4.348  0.3218 -0.1147  1.4696
  428EMI    H0Q 8130   1.629   4.158   4.369 -1.4306  0.4304 -0.0288
  428EMI    N02 8131   1.413   4.000   4.386  0.4385 -0.1630  1.5035
  428EMI    H0E 8132   1.555   3.863   4.365 -0.0224 -1.2765  0.7318
  429EMI    C01 8133   3.239   0.912   1.526  0.0366 -0.4275  0.0742
  429EMI    C04 8134   3.115   1.029   1.394  0.2743  0.4540 -0.0916
  429EMI    C03 8135   3.107   0.900   1.352  0.9252  0.3606  0.1538
  429EMI    H07 8136   3.294   0.887   1.614 -0.1613 -0.6983  0.1224
  429EMI    H09 8137   3.058   1.110   1.354 -1.4834 -0.2168  0.9192
  429EMI    H08 8138   3.041   0.865   1.276 -3.6283  2.9153  2.5190
  429EMI    C05 8139   3.167   0.676   1.469 -1.4203 -0.2399 -1.3002
  429EMI    H0B 8140   3.240   0.626   1.408 -0.2821 -2.3298  1.5678
  429EMI    H0C 8141   3.192   0.651   1.572  0.3570  2.1135 -1.0798
  429EMI    H0D 8142   3.069   0.634   1.454 -1.5777  0.5980 -2.7923
  429EMI    N00 8143   3.173   0.825   1.450 -0.0308 -0.0421 -0.0379
  429EMI    C06 8144   3.257   1.160   1.553  0.3713 -0.5958  0.5539
  429EMI    H0F 8145   3.232   1.244   1.489 -0.6748 -1.4175 -0.1580
  429EMI    C0N 8146   3.183   1.179   1.680  0.3131 -0.4142 -0.0725
  429EMI    H0O 8147   3.175   1.285   1.699  0.4871 -0.3890 -0.1431
  429EMI    H0P 8148   3.083   1.139   1.665 -0.7402  1.2592  1.9363
  429EMI    H0Q 8149   3.230   1.144   1.771 -0.5574  0.9766  0.9431
  429EMI    N02 8150   3.218   1.037   1.483 -0.3354  0.8678  0.3404
  429EMI    H0E 8151   3.363   1.177   1.566  0.4902  0.5510 -1.4827
  430EMI    C01 8152   1.938   1.139   2.735  0.3211  0.3628 -0.1753
  430EMI    C04 8153   2.025   1.081   2.548 -0.3335 -0.1074 -0.3751
  430EMI    C03 8154   2.119   1.092   2.636 -0.9599  0.3187  0.0216
  430EMI    H07 8155   1.867   1.166   2.811  0.8313 -0.7983  0.7495
  430EMI    H09 8156   2.028   1.047   2.447 -0.8247 -2.0343  0.2197
  430EMI    H08 8157   2.223   1.066   2.633 -0.5350  1.9515 -0.4891
  430EMI    C05 8158   2.138   1.126   2.884 -0.2159 -0.1310 -0.0699
  430EMI    H0B 8159   2.240   1.094   2.866 -0.8534 -1.7768 -0.9387
  430EMI    H0C 8160   2.134   1.228   2.919 -0.6258  0.6911 -2.3557
  430EMI    H0D 8161   2.094   1.057   2.956 -1.2453 -0.6122 -1.1344
  430EMI    N00 8162   2.065   1.120   2.757  0.5050  0.1931 -0.5213
  430EMI    C06 8163   1.794   1.180   2.538  1.0040  0.1762 -0.3374
  430EMI    H0F 8164   1.751   1.106   2.472 -0.6324  1.9602 -1.4045
  430EMI    C0N 8165   1.683   1.230   2.624 -0.1801  0.4965 -0.5669
  430EMI    H0O 8166   1.621   1.156   2.673 -1.7524  1.1572 -1.4665
  430EMI    H0P 8167   1.732   1.284   2.705  0.4519 -1.8015  0.6676
  430EMI    H0Q 8168   1.616   1.285   2.558 -0.8361 -0.0424 -0.3600
  430EMI    N02 8169   1.915   1.132   2.610  0.0328 -0.2218  0.0030
  430EMI    H0E 8170   1.832   1.263   2.480  0.2687  1.3505  0.7997
  431EMI    C01 8171   0.235   1.325   3.075 -1.1186 -0.2014  0.8472
  431EMI    C04 8172   0.024   1.398   3.068 -0.3473  0.0306  0.5985
  431EMI    C03 8173   0.082   1.435   3.182 -0.4260 -0.3662  0.0097
  431EMI    H07 8174   0.320   1.268   3.045 -0.0712  1.0606  1.3429
  431EMI    H09 8175  -0.074   1.418   3.029 -1.5384 -0.7385  3.0261
  431EMI    H08 8176   0.033   1.492   3.258 -2.2453  0.7200 -1.8531
  431EMI    C05 8177   0.315   1.428   3.280  0.4395  0.7929  0.2402
  431EMI    H0B 8178   0.301   1.367   3.368  0.5588  0.1617 -0.1711
  431EMI    H0C 8179   0.415   1.416   3.240  0.0902 -1.0430 -0.2116
  431EMI    H0D 8180   0.305   1.531   3.310  0.5557  1.0859 -0.6952
  431EMI    N00 8181   0.213   1.389   3.184 -0.2881  0.3094  0.5948
  431EMI    C06 8182   0.126   1.264   2.871  0.2566  0.2173  0.3773
  431EMI    H0F 8183   0.229   1.251   2.840  1.2556 -0.3906  3.5694
  431EMI    C0N 8184   0.069   1.122   2.861 -0.5200 -0.3446 -0.3916
  431EMI    H0O 8185   0.138   1.042   2.834 -0.5060 -0.1996 -0.7964
  431EMI    H0P 8186   0.043   1.100   2.964 -0.9747  1.7006 -0.0302
  431EMI    H0Q 8187  -0.015   1.123   2.794  0.3369 -0.5348 -1.5033
  431EMI    N02 8188   0.127   1.330   3.001 -0.6793 -0.0247 -0.6834
  431EMI    H0E 8189   0.084   1.329   2.796  0.2846  1.0168  1.0497
  432EMI    C01 8190   1.818   2.207   4.922  0.9933  0.6301  0.2996
  432EMI    C04 8191   1.929   2.076   5.047  0.0802  1.0251 -0.4607
  432EMI    C03 8192   1.856   2.002   4.962  0.1913 -0.6264 -0.1648
  432EMI    H07 8193   1.786   2.300   4.880 -0.3291 -0.0493 -0.2560
  432EMI    H09 8194   2.003   2.049   5.120 -1.2754 -2.2750 -0.1409
  432EMI    H08 8195   1.862   1.896   4.969 -1.6553 -0.6779  1.7443
  432EMI    C05 8196   1.684   2.046   4.775  0.2830 -0.2396  0.4393
  432EMI    H0B 8197   1.731   2.035   4.678 -1.2680 -4.3343 -0.0580
  432EMI    H0C 8198   1.651   1.949   4.810  0.0923  0.3089  1.8301
  432EMI    H0D 8199   1.598   2.111   4.768  2.1123  2.4742  1.8093
  432EMI    N00 8200   1.777   2.087   4.886  0.4622 -0.1377  0.1916
  432EMI    C06 8201   1.959   2.326   5.090 -0.1582  0.3882 -0.0794
  432EMI    H0F 8202   1.967   2.323   5.198 -2.0234  2.8845  0.2203
  432EMI    C0N 8203   2.096   2.347   5.030  0.0647 -0.2960  0.2313
  432EMI    H0O 8204   2.136   2.247   5.023  0.4158 -0.0670 -1.6727
  432EMI    H0P 8205   2.090   2.372   4.924 -0.4856 -1.6314 -0.0712
  432EMI    H0Q 8206   2.150   2.424   5.083 -1.6770  1.1616 -0.0115
  432EMI    N02 8207   1.894   2.205   5.026 -0.7801 -0.0380 -0.1257
  432EMI    H0E 8208   1.906   2.419   5.077  0.6712  0.7475 -1.0971
  433EMI    C01 8209   2.394   1.302   3.732  0.2519 -0.0047 -0.8362
  433EMI    C04 8210   2.545   1.436   3.659 -0.4740  0.3473 -0.2004
  433EMI    C03 8211   2.462   1.415   3.561  0.0662 -0.1360  0.5505
  433EMI    H07 8212   2.337   1.233   3.790 -0.6120 -0.5468 -2.2780
  433EMI    H09 8213   2.627   1.505   3.661 -0.7490  0.6779 -0.1300
  433EMI    H08 8214   2.465   1.464   3.466 -0.0864 -1.1636  0.0027
  433EMI    C05 8215   2.259   1.272   3.514 -0.1740  0.6051 -0.0451
  433EMI    H0B 8216   2.263   1.321   3.418 -0.7010  0.0654 -0.3442
  433EMI    H0C 8217   2.264   1.171   3.477 -0.7206  1.4959 -2.7654
  433EMI    H0D 8218   2.160   1.288   3.553 -1.4010 -2.1041 -1.7645
  433EMI    N00 8219   2.365   1.324   3.602 -0.1814  0.6708 -0.2051
  433EMI    C06 8220   2.574   1.356   3.896 -0.0777  0.1786  0.3360
  433EMI    H0F 8221   2.559   1.256   3.933 -0.8630 -0.1080 -0.7169
  433EMI    C0N 8222   2.723   1.376   3.887 -0.5676  0.0498 -0.0227
  433EMI    H0O 8223   2.737   1.480   3.859 -0.3214  0.2010  0.6561
  433EMI    H0P 8224   2.779   1.376   3.980  0.5851  2.4486 -0.6172
  433EMI    H0Q 8225   2.769   1.310   3.814 -0.9397 -0.9155  0.6094
  433EMI    N02 8226   2.506   1.358   3.765  0.3245  1.2917 -0.0828
  433EMI    H0E 8227   2.533   1.429   3.963  0.6601 -0.8001  1.9211
  434EMI    C01 8228   3.354   2.587   4.213 -0.3951 -0.2336  0.4018
  434EMI    C04 8229   3.174   2.685   4.266  0.1023  0.1702  0.0806
  434EMI    C03 8230   3.142   2.600   4.167  0.5734 -0.0879  0.0851
  434EMI    H07 8231   3.453   2.545   4.213  0.1676  1.0421  1.0774
  434EMI    H09 8232   3.113   2.751   4.324  0.1852  2.4142 -2.2170
  434EMI    H08 8233   3.043   2.589   4.128  1.0487  0.9368 -1.5391
  434EMI    C05 8234   3.281   2.437   4.036  0.4501  0.0840 -0.8374
  434EMI    H0B 8235   3.354   2.471   3.964  0.9081  0.6929 -0.1065
  434EMI    H0C 8236   3.318   2.350   4.089 -0.8021 -0.0938 -0.2139
  434EMI    H0D 8237   3.185   2.410   3.995 -1.4000  2.4276  1.5445
  434EMI    N00 8238   3.262   2.542   4.136 -0.3043  0.3041  0.8034
  434EMI    C06 8239   3.376   2.799   4.356 -0.5590 -0.1622 -0.0015
  434EMI    H0F 8240   3.484   2.792   4.350 -0.1009  2.5671  2.7553
  434EMI    C0N 8241   3.356   2.935   4.297 -0.6949  0.6178  0.0434
  434EMI    H0O 8242   3.266   2.979   4.337  0.1202  0.7494  1.8114
  434EMI    H0P 8243   3.446   2.995   4.308  0.7773 -1.3423 -0.7752
  434EMI    H0Q 8244   3.346   2.925   4.189  2.7515  2.7871 -0.6340
  434EMI    N02 8245   3.310   2.692   4.282  0.1093  0.3089 -0.4677
  434EMI    H0E 8246   3.344   2.807   4.458  1.2790  1.0228  0.5378
  435EMI    C01 8247   2.918   0.072   3.860  0.0773 -0.3910  0.0054
  435EMI    C04 8248   2.774   0.208   3.940  0.0700 -0.4954  0.8043
  435EMI    C03 8249   2.885   0.277   3.899  0.0679  0.2318 -0.4575
  435EMI    H07 8250   2.968  -0.016   3.825  3.2921  0.6794  1.5556
  435EMI    H09 8251   2.679   0.241   3.975  0.4174  0.5921  0.7524
  435EMI    H08 8252   2.904   0.382   3.897  1.7656 -0.0596 -2.4750
  435EMI    C05 8253   3.125   0.204   3.836  0.0426  0.0413 -0.5020
  435EMI    H0B 8254   3.137   0.302   3.793 -0.6485  0.7415  0.8234
  435EMI    H0C 8255   3.191   0.200   3.921  0.2105 -2.6950 -0.6523
  435EMI    H0D 8256   3.164   0.142   3.757 -0.9753 -0.8557 -0.3237
  435EMI    N00 8257   2.980   0.185   3.861  0.0253 -0.3818 -0.3024
  435EMI    C06 8258   2.720  -0.046   3.947 -0.1770 -0.0094  0.3127
  435EMI    H0F 8259   2.755  -0.133   3.893 -1.3250 -1.4540  1.8081
  435EMI    C0N 8260   2.736  -0.060   4.096  0.8086 -0.3063  0.5523
  435EMI    H0O 8261   2.709   0.022   4.162 -1.8723 -0.8989  0.2837
  435EMI    H0P 8262   2.672  -0.140   4.131 -0.0351 -0.0195 -0.3144
  435EMI    H0Q 8263   2.838  -0.070   4.134  0.4908 -1.1016  1.2193
  435EMI    N02 8264   2.797   0.077   3.906 -0.3761  0.1421  0.0168
  435EMI    H0E 8265   2.613  -0.045   3.926 -0.5396 -0.8050  2.0108
  436EMI    C01 8266   2.869   0.994   3.001  0.0270  0.3890  0.6587
  436EMI    C04 8267   2.833   1.113   2.824 -0.2155  0.1401 -0.1837
  436EMI    C03 8268   2.720   1.050   2.852  0.3436  0.2394  0.1747
  436EMI    H07 8269   2.917   0.950   3.085  0.3818 -1.0513 -0.2634
  436EMI    H09 8270   2.855   1.182   2.745 -0.6811  0.7362  0.1902
  436EMI    H08 8271   2.621   1.053   2.812  0.8791 -0.8097 -1.2931
  436EMI    C05 8272   2.660   0.882   3.043 -0.4606  0.2090  0.1112
  436EMI    H0B 8273   2.570   0.932   3.077 -0.8188  0.0225 -0.5550
  436EMI    H0C 8274   2.631   0.807   2.971  0.2500  0.0163  0.0183
  436EMI    H0D 8275   2.706   0.825   3.123 -1.7201 -1.5472 -0.3362
  436EMI    N00 8276   2.749   0.972   2.968  0.5007 -0.0602 -0.0927
  436EMI    C06 8277   3.071   1.132   2.930 -0.1096 -0.1901  0.0481
  436EMI    H0F 8278   3.065   1.239   2.926 -0.1738 -0.1098  1.6492
  436EMI    C0N 8279   3.120   1.103   3.066 -0.7590  0.2855  0.0474
  436EMI    H0O 8280   3.208   1.164   3.085 -1.9039  0.8819  4.6995
  436EMI    H0P 8281   3.050   1.133   3.143  0.0851 -0.8714  1.3097
  436EMI    H0Q 8282   3.143   0.997   3.072 -0.6063  0.3146 -0.0289
  436EMI    N02 8283   2.927   1.073   2.915  0.3361 -0.2555  0.2196
  436EMI    H0E 8284   3.131   1.077   2.859 -1.1717  0.7455 -1.6536
  437EMI    C01 8285   1.395   2.972   0.180  0.3976 -0.3163 -0.7166
  437EMI    C04 8286   1.575   3.072   0.117 -0.0757 -0.0581 -0.4038
  437EMI    C03 8287   1.516   3.019   0.008 -0.0234  0.2090 -0.3917
  437EMI    H07 8288   1.322   2.931   0.246 -0.3984 -0.2241 -1.5116
  437EMI    H09 8289   1.668   3.123   0.129 -1.2962  1.7033  2.7581
  437EMI    H08 8290   1.549   3.014  -0.094 -0.4116 -0.8589 -0.4795
  437EMI    C05 8291   1.293   2.901  -0.032 -0.4975 -0.2119  0.0440
  437EMI    H0B 8292   1.279   2.953  -0.126  1.6902 -1.2852 -0.9449
  437EMI    H0C 8293   1.319   2.797  -0.046  2.6781  0.8132 -3.4511
  437EMI    H0D 8294   1.195   2.901   0.014 -0.1904  1.0500  0.7234
  437EMI    N00 8295   1.398   2.960   0.050  0.5908  0.1693  0.0291
  437EMI    C06 8296   1.520   3.084   0.364  0.0872  0.6008  0.4802
  437EMI    H0F 8297   1.448   3.025   0.419 -1.5153  2.2915  0.3058
  437EMI    C0N 8298   1.667   3.052   0.391 -0.0334 -0.4981  0.8007
  437EMI    H0O 8299   1.698   2.973   0.323  1.4064  0.9798 -0.3399
  437EMI    H0P 8300   1.722   3.143   0.372 -0.7717 -0.0014  1.0372
  437EMI    H0Q 8301   1.686   3.016   0.492 -3.1952 -1.0073  1.3006
  437EMI    N02 8302   1.492   3.050   0.223 -0.1864  0.3429  0.2399
  437EMI    H0E 8303   1.496   3.189   0.369  2.0424  1.1757 -1.0166
  438EMI    C01 8304   0.447   1.866   1.014 -0.1104 -0.1217 -0.0018
  438EMI    C04 8305   0.549   2.043   0.950 -0.6632  1.0318  0.3143
  438EMI    C03 8306   0.417   2.068   0.927  0.2039 -0.0497  0.8294
  438EMI    H07 8307   0.424   1.764   1.038 -0.3764 -0.1865 -0.5025
  438EMI    H09 8308   0.633   2.104   0.925  1.0319 -1.0351  0.6993
  438EMI    H08 8309   0.365   2.149   0.882 -0.8368 -1.4768 -0.6544
  438EMI    C05 8310   0.210   1.923   0.955  0.1297  0.1061 -0.4234
  438EMI    H0B 8311   0.161   2.001   0.898 -2.2595 -0.1663  1.1395
  438EMI    H0C 8312   0.183   1.827   0.914 -1.0030  0.0326  0.4386
  438EMI    H0D 8313   0.156   1.938   1.047  0.1091 -0.1196 -0.3987
  438EMI    N00 8314   0.357   1.948   0.966 -0.8503  0.3611 -0.0846
  438EMI    C06 8315   0.703   1.855   1.025 -0.2666 -0.0103 -0.3432
  438EMI    H0F 8316   0.730   1.799   0.936  2.5282 -0.0321  0.4280
  438EMI    C0N 8317   0.819   1.956   1.054  0.0836  0.1364  0.0249
  438EMI    H0O 8318   0.904   1.913   1.105  0.2119 -0.2183 -0.4797
  438EMI    H0P 8319   0.855   1.995   0.959 -0.0170  1.0481  0.3507
  438EMI    H0Q 8320   0.775   2.032   1.118  0.2658  1.2195 -1.0895
  438EMI    N02 8321   0.569   1.913   0.996  0.6319 -0.8698  0.0791
  438EMI    H0E 8322   0.686   1.784   1.104 -0.5030 -0.4135 -0.7466
  439EMI    C01 8323   3.176   1.692   1.547 -0.0689  0.1808 -0.8247
  439EMI    C04 8324   3.372   1.628   1.476 -0.1974  0.3840  0.4899
  439EMI    C03 8325   3.291   1.634   1.367  0.6398 -0.5544 -1.5113
  439EMI    H07 8326   3.099   1.713   1.618  1.0164 -1.7871  1.0568
  439EMI    H09 8327   3.473   1.593   1.484 -0.2452  0.5327  2.0944
  439EMI    H08 8328   3.312   1.610   1.265 -0.6433 -2.1905 -1.4231
  439EMI    C05 8329   3.052   1.682   1.335 -0.4554 -0.3723  0.3004
  439EMI    H0B 8330   3.068   1.733   1.242 -2.6089  2.6926  1.4515
  439EMI    H0C 8331   3.022   1.579   1.321 -1.5351  0.0062 -0.2093
  439EMI    H0D 8332   2.984   1.735   1.400 -0.8236 -0.8544  0.3185
  439EMI    N00 8333   3.165   1.665   1.419 -0.2094  0.2712  0.3255
  439EMI    C06 8334   3.343   1.671   1.723  0.2198 -0.2911  0.7288
  439EMI    H0F 8335   3.267   1.701   1.793  1.3320 -0.2886  1.9754
  439EMI    C0N 8336   3.380   1.532   1.764 -0.5444 -0.1928 -0.8765
  439EMI    H0O 8337   3.458   1.483   1.706  0.0638 -1.1913  0.7133
  439EMI    H0P 8338   3.417   1.539   1.866 -4.8161 -4.7984  1.4635
  439EMI    H0Q 8339   3.305   1.456   1.784 -0.0507 -0.8062 -1.3159
  439EMI    N02 8340   3.297   1.663   1.586  0.0977 -0.0631 -0.1194
  439EMI    H0E 8341   3.426   1.739   1.734 -0.7527  1.6060 -2.4343
  440EMI    C01 8342   3.907   2.395   1.891  0.1228  0.3888 -0.9225
  440EMI    C04 8343   4.085   2.383   1.771 -0.2707 -0.2897 -0.0515
  440EMI    C03 8344   4.066   2.510   1.815  0.1264 -0.4886  0.5009
  440EMI    H07 8345   3.821   2.362   1.946  1.0800 -0.9613 -0.1784
  440EMI    H09 8346   4.157   2.348   1.701  0.2829  0.9035 -0.0950
  440EMI    H08 8347   4.131   2.588   1.782  0.0491 -0.8788 -0.6345
  440EMI    C05 8348   3.913   2.634   1.974 -0.6274 -0.1450 -0.3873
  440EMI    H0B 8349   3.996   2.677   2.027 -1.0709 -1.6537  1.6605
  440EMI    H0C 8350   3.878   2.705   1.900  3.7422  1.3829 -1.2833
  440EMI    H0D 8351   3.846   2.593   2.048 -1.6197 -0.9748 -1.6833
  440EMI    N00 8352   3.963   2.516   1.904  0.5639 -0.0036  0.6172
  440EMI    C06 8353   3.966   2.160   1.805  0.4432  0.0153 -0.1266
  440EMI    H0F 8354   3.860   2.144   1.800  0.2760  1.4070 -2.7842
  440EMI    C0N 8355   4.011   2.123   1.663  0.2528 -0.2167  0.4270
  440EMI    H0O 8356   3.971   2.187   1.586  1.3790 -2.4725 -2.2185
  440EMI    H0P 8357   4.118   2.113   1.647  0.0204 -0.6673 -0.9121
  440EMI    H0Q 8358   3.962   2.029   1.639 -0.2262  0.2837 -0.5886
  440EMI    N02 8359   3.979   2.309   1.826  0.1330  0.2444  0.4527
  440EMI    H0E 8360   3.998   2.102   1.891 -1.1707  1.1640  1.3036
  441EMI    C01 8361   0.046   2.774   2.780  0.2882 -0.2834 -0.1705
  441EMI    C04 8362   0.071   2.990   2.797 -0.4558  0.8397  0.4061
  441EMI    C03 8363  -0.015   2.966   2.701 -0.2116 -0.5814  0.2746
  441EMI    H07 8364   0.066   2.670   2.790 -1.9231 -0.8558 -1.0544
  441EMI    H09 8365   0.102   3.086   2.833 -0.7235  0.3485  2.0170
  441EMI    H08 8366  -0.082   3.027   2.646  0.2032 -0.2271  0.1637
  441EMI    C05 8367  -0.099   2.760   2.582 -0.6068 -0.1284 -0.2520
  441EMI    H0B 8368  -0.198   2.797   2.562  0.0417  1.3383 -0.9107
  441EMI    H0C 8369  -0.038   2.749   2.494  0.3937  1.3316  0.2170
  441EMI    H0D 8370  -0.122   2.662   2.622 -0.5710  0.1118  0.3635
  441EMI    N00 8371  -0.034   2.830   2.694  0.2588  0.0407  0.7243
  441EMI    C06 8372   0.219   2.833   2.950  0.0018  0.0116  0.1460
  441EMI    H0F 8373   0.311   2.868   2.905 -0.9227 -0.3450 -2.1564
  441EMI    C0N 8374   0.197   2.905   3.082 -0.1089  0.2038 -0.1145
  441EMI    H0O 8375   0.201   3.014   3.081  0.2749  0.1904 -1.1534
  441EMI    H0P 8376   0.099   2.880   3.120  0.3277  0.1816  1.0616
  441EMI    H0Q 8377   0.268   2.866   3.154 -0.3557  0.3293  0.2007
  441EMI    N02 8378   0.109   2.864   2.851 -0.5838 -0.4053 -0.0626
  441EMI    H0E 8379   0.234   2.728   2.970  0.6115  0.1357  0.3436
  442EMI    C01 8380   3.796   4.684   2.892 -0.7112  0.0280  0.4491
  442EMI    C04 8381   3.630   4.764   2.777 -0.0525  0.7641 -0.8726
  442EMI    C03 8382   3.740   4.822   2.727 -0.3412  0.7280  0.2473
  442EMI    H07 8383   3.859   4.620   2.950 -1.4614 -1.2156 -0.0453
  442EMI    H09 8384   3.529   4.764   2.741  0.6546  2.1747 -3.0473
  442EMI    H08 8385   3.744   4.878   2.637  1.7167 -2.4276 -1.8337
  442EMI    C05 8386   3.991   4.803   2.797  0.9616  0.5466  0.2046
  442EMI    H0B 8387   4.034   4.720   2.742  1.7555 -0.6603  2.5142
  442EMI    H0C 8388   3.995   4.900   2.751  1.0036  0.2605 -0.4103
  442EMI    H0D 8389   4.032   4.798   2.896  1.4388  0.4197  0.0024
  442EMI    N00 8390   3.847   4.767   2.802  0.0079  0.4243 -0.1310
  442EMI    C06 8391   3.557   4.598   2.944 -0.4489 -0.4359 -0.6606
  442EMI    H0F 8392   3.583   4.594   3.049 -0.7252 -0.7050 -0.6024
  442EMI    C0N 8393   3.417   4.661   2.940  0.1628  0.4481 -0.0373
  442EMI    H0O 8394   3.348   4.623   3.014 -0.9398  0.3948 -1.0428
  442EMI    H0P 8395   3.422   4.769   2.950 -0.0268  0.4320  0.2253
  442EMI    H0Q 8396   3.373   4.644   2.842  0.7779  2.0066 -0.6266
  442EMI    N02 8397   3.667   4.680   2.877 -0.0430  0.1996 -0.1074
  442EMI    H0E 8398   3.550   4.502   2.897 -0.5353 -0.0665 -1.4227
  443EMI    C01 8399   1.912   4.464   4.791 -0.7885 -0.0886  0.4487
  443EMI    C04 8400   1.988   4.301   4.915  0.3029  0.0805 -0.0067
  443EMI    C03 8401   1.870   4.260   4.870  0.2532  0.2438  0.4701
  443EMI    H07 8402   1.904   4.553   4.732  0.7500  0.4954  1.0827
  443EMI    H09 8403   2.049   4.253   4.989 -0.9248 -1.2025  0.2093
  443EMI    H08 8404   1.813   4.171   4.888  2.2506 -1.2079  0.0103
  443EMI    C05 8405   1.700   4.361   4.709 -0.4156 -0.5260  0.2758
  443EMI    H0B 8406   1.615   4.380   4.774  0.5152 -0.0810  1.3954
  443EMI    H0C 8407   1.717   4.431   4.629 -0.5339  0.9115  1.4725
  443EMI    H0D 8408   1.679   4.263   4.667  2.3312 -0.5914 -1.1346
  443EMI    N00 8409   1.824   4.369   4.791  0.2866 -0.5460  0.2030
  443EMI    C06 8410   2.149   4.490   4.878  0.1516 -0.4046 -0.1860
  443EMI    H0F 8411   2.210   4.425   4.940  1.3160  0.2058 -0.6646
  443EMI    C0N 8412   2.205   4.536   4.751 -0.0088 -1.4834  0.0542
  443EMI    H0O 8413   2.217   4.451   4.685 -1.3367 -1.9736  0.4058
  443EMI    H0P 8414   2.137   4.602   4.698 -0.1643 -1.4504  0.2885
  443EMI    H0Q 8415   2.302   4.576   4.776  0.0037 -0.7177 -1.1563
  443EMI    N02 8416   2.013   4.426   4.868 -0.5013  0.2309  0.5039
  443EMI    H0E 8417   2.137   4.572   4.947  2.4999 -0.0002 -0.1642
  444EMI    C01 8418   4.856   2.148   0.447 -0.4075 -0.0432 -0.2612
  444EMI    C04 8419   4.672   2.191   0.349  0.2425  0.3911 -0.0072
  444EMI    C03 8420   4.654   2.195   0.486  0.8719 -0.2053  0.8386
  444EMI    H07 8421   4.961   2.137   0.463 -0.1709 -0.0886 -1.7705
  444EMI    H09 8422   4.617   2.202   0.258 -1.2737  0.9626  0.9375
  444EMI    H08 8423   4.571   2.225   0.547 -1.2722 -1.3944 -1.2988
  444EMI    C05 8424   4.806   2.150   0.689 -0.4231  0.4031 -0.7493
  444EMI    H0B 8425   4.844   2.245   0.722  1.5281 -0.5979  0.0559
  444EMI    H0C 8426   4.723   2.108   0.744  0.2655  0.9149  0.7272
  444EMI    H0D 8427   4.884   2.077   0.708 -1.8044 -1.2192 -1.0064
  444EMI    N00 8428   4.770   2.157   0.545  0.4573  0.2642 -0.1186
  444EMI    C06 8429   4.857   2.163   0.188  0.3711 -0.2941  0.0630
  444EMI    H0F 8430   4.824   2.079   0.129  2.3232 -0.5310 -0.7510
  444EMI    C0N 8431   4.841   2.300   0.121  0.5494 -0.6118 -0.1970
  444EMI    H0O 8432   4.850   2.386   0.185  0.1022 -0.6455 -0.0859
  444EMI    H0P 8433   4.928   2.300   0.056  1.2965 -0.5360  0.7978
  444EMI    H0Q 8434   4.753   2.309   0.057  0.0631 -0.4821  0.4793
  444EMI    N02 8435   4.803   2.170   0.330 -0.3505  0.6439  0.3302
  444EMI    H0E 8436   4.961   2.143   0.208  0.9183 -0.2173 -2.4590
  445EMI    C01 8437   5.009   4.337   4.145  0.1926  0.0969  0.2682
  445EMI    C04 8438   5.112   4.464   4.281 -0.2540  0.2364  0.4472
  445EMI    C03 8439   5.078   4.352   4.347 -0.1563 -0.0015  0.2242
  445EMI    H07 8440   4.952   4.300   4.062  0.5218 -0.2286  0.1854
  445EMI    H09 8441   5.168   4.549   4.313 -0.2275  0.2834  0.2761
  445EMI    H08 8442   5.093   4.334   4.451  1.2902  0.5316  0.1350
  445EMI    C05 8443   4.930   4.149   4.288  0.0622 -0.1618  0.6878
  445EMI    H0B 8444   4.880   4.129   4.194  0.2544  0.1246  0.5250
  445EMI    H0C 8445   4.998   4.066   4.302 -0.6740 -0.6441  1.4637
  445EMI    H0D 8446   4.861   4.166   4.370 -2.7304 -1.1750 -1.2906
  445EMI    N00 8447   5.000   4.276   4.262 -0.2596 -0.4895 -0.0152
  445EMI    C06 8448   5.080   4.551   4.043 -0.1908 -0.0171 -0.4583
  445EMI    H0F 8449   5.064   4.495   3.952  0.0795  0.7672 -0.9992
  445EMI    C0N 8450   5.011   4.682   4.074 -0.4824  0.0366  0.7984
  445EMI    H0O 8451   4.913   4.693   4.029 -0.0117 -1.2479 -0.5733
  445EMI    H0P 8452   5.000   4.698   4.181 -0.1147 -0.1988  0.8736
  445EMI    H0Q 8453   5.069   4.768   4.041  0.1962 -0.6698  0.1205
  445EMI    N02 8454   5.065   4.453   4.153 -0.0449  0.1189  0.0612
  445EMI    H0E 8455   5.185   4.578   4.043 -0.3654  1.1184 -3.6957
  446EMI    C01 8456   0.228   2.620   1.552 -0.0016 -0.4963 -0.4251
  446EMI    C04 8457   0.090   2.629   1.371 -0.0303 -1.0206 -1.2565
  446EMI    C03 8458   0.092   2.502   1.416 -0.0845 -0.6549  0.5939
  446EMI    H07 8459   0.293   2.638   1.635  0.3322 -0.3753 -0.7099
  446EMI    H09 8460   0.032   2.674   1.294 -1.0436  1.1186  0.6613
  446EMI    H08 8461   0.025   2.429   1.376 -2.3504  1.7139 -0.2139
  446EMI    C05 8462   0.172   2.388   1.623  0.3884 -0.3325  0.6695
  446EMI    H0B 8463   0.079   2.339   1.600  0.9142 -0.3102 -1.6892
  446EMI    H0C 8464   0.246   2.317   1.590  0.6073  0.0845  0.2531
  446EMI    H0D 8465   0.180   2.433   1.721 -1.2627  0.8352  0.3045
  446EMI    N00 8466   0.173   2.500   1.531  0.9306 -0.6266 -0.1971
  446EMI    C06 8467   0.187   2.837   1.439 -0.4750 -0.0875 -0.2057
  446EMI    H0F 8468   0.095   2.864   1.389 -0.0455  1.2420 -0.3161
  446EMI    C0N 8469   0.182   2.916   1.570 -0.2284 -0.1217  1.2311
  446EMI    H0O 8470   0.086   2.914   1.621  0.0824  3.2434  2.1634
  446EMI    H0P 8471   0.263   2.877   1.631  2.2317  0.4325 -1.4437
  446EMI    H0Q 8472   0.210   3.018   1.547 -1.9934  0.0919 -0.1766
  446EMI    N02 8473   0.178   2.697   1.455  0.3018 -0.1087  0.2542
  446EMI    H0E 8474   0.273   2.860   1.378 -0.2315 -0.0846  0.1359
  447EMI    C01 8475   0.214   3.492   3.709  0.4754 -0.3113 -0.0158
  447EMI    C04 8476   0.272   3.692   3.770  0.5845  0.5019  0.9678
  447EMI    C03 8477   0.375   3.614   3.787  0.4553  0.0336  0.3402
  447EMI    H07 8478   0.153   3.409   3.683 -1.0453  0.9008 -0.4639
  447EMI    H09 8479   0.267   3.796   3.795  1.1513  0.0707  3.0580
  447EMI    H08 8480   0.473   3.636   3.824 -0.1478  2.0184  0.8786
  447EMI    C05 8481   0.426   3.366   3.754  0.7787 -0.1563  0.1103
  447EMI    H0B 8482   0.518   3.415   3.725  1.4880 -1.4727  0.0405
  447EMI    H0C 8483   0.431   3.326   3.854 -1.6557  0.5727  0.5877
  447EMI    H0D 8484   0.379   3.296   3.687 -0.8218  0.9459  0.0349
  447EMI    N00 8485   0.334   3.487   3.756  0.4668  0.0295  0.4236
  447EMI    C06 8486   0.038   3.662   3.670 -0.0420 -0.0029  0.0184
  447EMI    H0F 8487   0.052   3.764   3.639  0.2519  0.5104  1.7957
  447EMI    C0N 8488  -0.022   3.588   3.555  0.0144 -0.0864 -0.2854
  447EMI    H0O 8489  -0.064   3.493   3.587 -1.5584 -0.2308 -2.4819
  447EMI    H0P 8490  -0.105   3.642   3.510 -0.6349 -1.1763 -0.4415
  447EMI    H0Q 8491   0.045   3.571   3.471 -0.3567  0.3825 -0.6850
  447EMI    N02 8492   0.168   3.615   3.718 -0.7105 -0.3802 -1.0690
  447EMI    H0E 8493  -0.033   3.660   3.751 -0.7453 -0.5775 -0.5906
  448EMI    C01 8494   4.214   4.074   2.802 -0.2122 -0.4301 -0.2012
  448EMI    C04 8495   4.353   4.235   2.843  0.2348 -1.0309 -0.5557
  448EMI    C03 8496   4.351   4.222   2.710  0.8380  0.5288 -0.4747
  448EMI    H07 8497   4.137   4.001   2.809 -0.3416 -0.2420  0.4636
  448EMI    H09 8498   4.409   4.304   2.903 -0.8955 -0.3215 -0.2919
  448EMI    H08 8499   4.410   4.267   2.633  0.8283  1.1086 -0.1484
  448EMI    C05 8500   4.234   4.064   2.555 -0.0571 -0.0086  1.0659
  448EMI    H0B 8501   4.166   4.138   2.515 -0.0858  0.1179  1.3424
  448EMI    H0C 8502   4.319   4.068   2.489  1.0368  2.2670  2.4948
  448EMI    H0D 8503   4.191   3.965   2.564 -1.2213  0.5529  2.0625
  448EMI    N00 8504   4.275   4.109   2.687  0.0023  0.0923 -0.5235
  448EMI    C06 8505   4.222   4.152   3.042  0.3168 -0.4485 -0.6516
  448EMI    H0F 8506   4.293   4.090   3.095 -0.7216 -2.1097 -1.1232
  448EMI    C0N 8507   4.216   4.289   3.105 -0.8543 -0.7181 -0.7337
  448EMI    H0O 8508   4.310   4.339   3.128 -1.4620  0.4889 -0.7860
  448EMI    H0P 8509   4.169   4.365   3.043  0.9136  0.6580 -0.4668
  448EMI    H0Q 8510   4.170   4.276   3.202 -0.0489  0.8052 -0.1222
  448EMI    N02 8511   4.266   4.147   2.902  0.4930 -0.2427  0.6096
  448EMI    H0E 8512   4.128   4.099   3.045  1.0107 -1.6678  0.3479
  449EMI    C01 8513   4.995   0.162   1.845 -0.3676 -0.0824 -0.0296
  449EMI    C04 8514   4.942   0.125   2.056 -0.3510  0.0020 -0.7572
  449EMI    C03 8515   5.015   0.022   2.010  0.9586 -0.4505 -0.1602
  449EMI    H07 8516   5.018   0.205   1.749  0.7373 -1.3912 -0.3818
  449EMI    H09 8517   4.882   0.130   2.144  1.1664 -0.5140  0.3590
  449EMI    H08 8518   5.030  -0.072   2.059 -0.6082 -1.6186 -1.8131
  449EMI    C05 8519   5.150  -0.024   1.794 -0.0511  0.9362 -0.1562
  449EMI    H0B 8520   5.103  -0.025   1.697 -1.9210  0.1413  0.6963
  449EMI    H0C 8521   5.241   0.032   1.786 -0.9173  2.3864 -0.2343
  449EMI    H0D 8522   5.165  -0.126   1.827  0.5976  1.6263  1.8410
  449EMI    N00 8523   5.061   0.051   1.882  0.1885  0.4820 -0.0047
  449EMI    C06 8524   4.873   0.344   1.957  0.4286 -0.2966 -0.1269
  449EMI    H0F 8525   4.881   0.387   1.859  0.6992  0.1143  0.0730
  449EMI    C0N 8526   4.729   0.330   1.986  0.3815 -0.4788 -0.3851
  449EMI    H0O 8527   4.694   0.231   1.959 -0.0726 -0.4691  0.1689
  449EMI    H0P 8528   4.702   0.338   2.090  0.7543  1.5226 -0.4103
  449EMI    H0Q 8529   4.678   0.412   1.937  2.2857  0.7110 -0.4762
  449EMI    N02 8530   4.936   0.217   1.952  0.0647  0.6217  0.1157
  449EMI    H0E 8531   4.936   0.396   2.028  1.4529  1.3543 -2.1626
  450EMI    C01 8532   4.656   0.183   0.968 -0.8679  0.1081  0.4561
  450EMI    C04 8533   4.871   0.204   0.932  0.2612  0.0139  0.2529
  450EMI    C03 8534   4.807   0.190   0.818 -0.3069  0.2913  1.6579
  450EMI    H07 8535   4.565   0.165   1.021 -1.7765 -0.0249 -1.0816
  450EMI    H09 8536   4.975   0.215   0.952 -0.3250  3.1152  2.3644
  450EMI    H08 8537   4.840   0.183   0.717 -1.2680 -0.8975  1.3990
  450EMI    C05 8538   4.573   0.173   0.737  0.1481  0.1040 -0.2145
  450EMI    H0B 8539   4.609   0.099   0.668 -0.6442 -1.1121  0.6473
  450EMI    H0C 8540   4.475   0.137   0.766 -0.4488  1.6181 -0.2052
  450EMI    H0D 8541   4.571   0.263   0.677 -0.0233  0.4780  0.3386
  450EMI    N00 8542   4.673   0.181   0.835 -0.4830 -0.3095  0.6957
  450EMI    C06 8543   4.795   0.212   1.173 -0.2153  0.0009  0.1099
  450EMI    H0F 8544   4.701   0.205   1.225 -0.3509 -1.8224 -0.3063
  450EMI    C0N 8545   4.882   0.105   1.201  0.4161 -0.0421  0.3648
  450EMI    H0O 8546   4.882   0.031   1.122  0.1029  1.7911 -1.4514
  450EMI    H0P 8547   4.982   0.144   1.213  0.8972 -1.3581  0.7702
  450EMI    H0Q 8548   4.849   0.062   1.295  0.3093  0.2765  0.4754
  450EMI    N02 8549   4.772   0.211   1.029 -0.0252  0.4351 -0.3980
  450EMI    H0E 8550   4.832   0.311   1.195 -0.3882  0.1054 -0.0610
  451EMI    C01 8551   4.277   2.974   2.908  0.1284 -0.1887 -0.0946
  451EMI    C04 8552   4.269   2.844   3.083 -0.0876 -0.2200  0.1730
  451EMI    C03 8553   4.393   2.837   3.025  0.0541 -0.1423 -0.1651
  451EMI    H07 8554   4.258   3.046   2.832  1.9213 -0.2820 -0.6657
  451EMI    H09 8555   4.223   2.803   3.170  0.7375 -0.3455  0.5562
  451EMI    H08 8556   4.471   2.777   3.065 -0.7768  0.0536  1.9180
  451EMI    C05 8557   4.517   2.925   2.827 -0.1600  0.0076 -0.0746
  451EMI    H0B 8558   4.590   2.994   2.866  3.5737 -2.1387 -2.7119
  451EMI    H0C 8559   4.553   2.826   2.806  0.6635  0.9079 -3.5083
  451EMI    H0D 8560   4.483   2.959   2.730 -1.6255 -0.1529  0.3476
  451EMI    N00 8561   4.399   2.915   2.910  0.0675  0.4173  0.0544
  451EMI    C06 8562   4.058   2.983   3.019 -0.2232  0.6032  0.2569
  451EMI    H0F 8563   4.055   3.083   2.977 -0.2338  0.1304 -0.9074
  451EMI    C0N 8564   3.965   2.879   2.957 -0.4289 -0.4133  0.0737
  451EMI    H0O 8565   4.000   2.870   2.855  0.4948 -1.3353  0.4618
  451EMI    H0P 8566   3.969   2.775   2.986 -0.3255 -0.2630  0.6108
  451EMI    H0Q 8567   3.860   2.909   2.959 -0.3849 -0.1725 -0.9751
  451EMI    N02 8568   4.199   2.938   3.005  0.1283 -0.0217 -0.0857
  451EMI    H0E 8569   4.020   3.010   3.116 -0.5484  0.0598  0.2845
  452EMI    C01 8570   2.983   1.369   1.954 -0.8141  0.0766  0.1702
  452EMI    C04 8571   2.839   1.326   2.112  0.8356  0.2709 -0.5951
  452EMI    C03 8572   2.930   1.413   2.155 -0.7586  0.6695  0.3536
  452EMI    H07 8573   3.033   1.365   1.860  0.9487 -0.0032  1.0614
  452EMI    H09 8574   2.750   1.285   2.156  0.2427  1.8369 -0.2522
  452EMI    H08 8575   2.946   1.461   2.250  1.3710 -0.5114  0.6622
  452EMI    C05 8576   3.140   1.535   2.054 -0.5964 -0.1483  0.6654
  452EMI    H0B 8577   3.231   1.493   2.094 -0.0547 -0.7391 -1.1233
  452EMI    H0C 8578   3.170   1.552   1.952 -1.4900 -0.4341  0.3542
  452EMI    H0D 8579   3.109   1.630   2.095 -2.9363 -0.5049 -0.1402
  452EMI    N00 8580   3.028   1.437   2.057 -0.2239 -0.1257 -0.3196
  452EMI    C06 8581   2.788   1.205   1.908  0.0801  0.0619 -0.1626
  452EMI    H0F 8582   2.832   1.199   1.809 -0.2028  4.4598 -0.7224
  452EMI    C0N 8583   2.778   1.067   1.968  0.3535  0.0156  0.2355
  452EMI    H0O 8584   2.877   1.024   1.981  0.2977 -0.1717  0.0347
  452EMI    H0P 8585   2.716   1.064   2.057  0.4039 -1.7903  0.2463
  452EMI    H0Q 8586   2.720   1.006   1.900  0.6334  0.5230 -0.4672
  452EMI    N02 8587   2.869   1.302   1.986  0.2470  0.8061  0.8039
  452EMI    H0E 8588   2.689   1.246   1.900  0.0659 -0.0318 -0.4678
  453EMI    C01 8589   1.424   2.293   4.249 -0.0182  0.3093  0.1931
  453EMI    C04 8590   1.459   2.443   4.403  0.1935  0.7673  0.1882
  453EMI    C03 8591   1.435   2.511   4.286  0.6919  0.9409 -0.4560
  453EMI    H07 8592   1.423   2.202   4.192 -0.3506  1.1454 -1.1762
  453EMI    H09 8593   1.492   2.477   4.498 -0.0716  0.1021  0.5289
  453EMI    H08 8594   1.433   2.615   4.265 -4.1920  1.1776  0.1077
  453EMI    C05 8595   1.368   2.430   4.051 -0.8237 -0.0654  0.1047
  453EMI    H0B 8596   1.366   2.340   3.992  0.6750  1.0609 -1.7522
  453EMI    H0C 8597   1.261   2.447   4.055 -0.9026 -0.7024  1.2527
  453EMI    H0D 8598   1.436   2.506   4.017 -1.0118 -0.1600 -0.4889
  453EMI    N00 8599   1.408   2.409   4.191 -0.1416  0.3343  0.7248
  453EMI    C06 8600   1.447   2.207   4.482 -0.1954  0.1648 -0.0018
  453EMI    H0F 8601   1.350   2.216   4.530 -1.6236  1.2381 -2.8319
  453EMI    C0N 8602   1.459   2.065   4.417 -0.0687  0.2441 -0.4003
  453EMI    H0O 8603   1.360   2.028   4.391  0.5617 -1.4275 -0.5068
  453EMI    H0P 8604   1.522   2.065   4.329 -0.3535 -0.3722 -0.6130
  453EMI    H0Q 8605   1.513   2.002   4.486 -0.0278 -0.1720 -0.8037
  453EMI    N02 8606   1.435   2.310   4.380  0.1882  0.3147 -0.0878
  453EMI    H0E 8607   1.532   2.224   4.545  0.2713  1.7738 -1.0102
  454EMI    C01 8608   0.916   3.397   3.529 -0.1107 -0.3614 -0.9166
  454EMI    C04 8609   0.722   3.374   3.440 -0.6861  0.6357  0.4721
  454EMI    C03 8610   0.734   3.291   3.540  1.0593  1.0475 -0.6018
  454EMI    H07 8611   1.012   3.436   3.555 -0.9210  0.1242  1.6735
  454EMI    H09 8612   0.640   3.388   3.373 -1.5774  1.1818  1.6418
  454EMI    H08 8613   0.663   3.221   3.578  0.6846  1.5170 -0.4272
  454EMI    C05 8614   0.925   3.200   3.683 -0.1520  0.2320  0.7065
  454EMI    H0B 8615   1.016   3.247   3.716  1.2953  1.0352 -3.8168
  454EMI    H0C 8616   0.861   3.176   3.767 -0.4540 -0.4681  0.2860
  454EMI    H0D 8617   0.956   3.110   3.632  1.6310  2.1769 -1.8290
  454EMI    N00 8618   0.860   3.293   3.587  0.4143 -0.2593  0.3217
  454EMI    C06 8619   0.876   3.555   3.352  0.2138 -1.0281 -0.7832
  454EMI    H0F 8620   0.914   3.521   3.256 -0.5324  1.4804 -2.0591
  454EMI    C0N 8621   0.769   3.661   3.340 -0.0694 -0.4555 -1.2575
  454EMI    H0O 8622   0.690   3.642   3.269  0.0208  2.0895 -2.1505
  454EMI    H0P 8623   0.729   3.683   3.439 -2.7058 -1.9172 -1.8991
  454EMI    H0Q 8624   0.812   3.755   3.309  0.8856 -0.7139 -0.7395
  454EMI    N02 8625   0.840   3.445   3.441  0.4741  0.4029  0.1815
  454EMI    H0E 8626   0.959   3.610   3.395  0.8711 -1.7486 -1.1093
  455EMI    C01 8627   3.840   2.508   1.434  0.6325  0.7935  0.3772
  455EMI    C04 8628   3.810   2.684   1.301 -0.1359  0.5517  0.1492
  455EMI    C03 8629   3.723   2.587   1.264 -0.2915  0.5922  0.5984
  455EMI    H07 8630   3.865   2.446   1.518 -1.0880  1.5683  1.4995
  455EMI    H09 8631   3.814   2.787   1.273 -1.5710  0.7683  0.6381
  455EMI    H08 8632   3.651   2.582   1.186  1.5827  0.2302 -1.2134
  455EMI    C05 8633   3.694   2.341   1.326  0.2343  0.7462 -0.0523
  455EMI    H0B 8634   3.591   2.340   1.357  0.0503 -0.3340 -0.6443
  455EMI    H0C 8635   3.714   2.301   1.228  0.9185  0.6679  0.1150
  455EMI    H0D 8636   3.743   2.274   1.396 -0.1938  0.4936  0.0096
  455EMI    N00 8637   3.752   2.470   1.339  0.4799 -0.6731 -0.0303
  455EMI    C06 8638   3.942   2.720   1.513 -0.8406  0.0220  0.0372
  455EMI    H0F 8639   4.003   2.792   1.461 -1.5751  1.9598  1.7334
  455EMI    C0N 8640   3.851   2.792   1.612  0.5366 -0.0036  0.2042
  455EMI    H0O 8641   3.909   2.850   1.684  1.9706 -0.2424 -0.7277
  455EMI    H0P 8642   3.770   2.853   1.572 -0.6862 -0.9732  1.0956
  455EMI    H0Q 8643   3.810   2.722   1.684  0.4706  0.4850  0.6508
  455EMI    N02 8644   3.874   2.635   1.413  0.9465 -0.4540 -0.2930
  455EMI    H0E 8645   4.012   2.657   1.566  1.2164  1.5220 -0.7329
  456EMI    C01 8646   3.110   2.779   1.532 -0.4812 -0.5570  0.2385
  456EMI    C04 8647   2.986   2.607   1.515  0.4877 -0.2721  0.0357
  456EMI    C03 8648   2.906   2.716   1.487 -0.1601 -0.8481 -0.2646
  456EMI    H07 8649   3.196   2.836   1.559 -0.2001  0.1355 -1.9623
  456EMI    H09 8650   2.967   2.503   1.529  2.2700 -0.4675  1.3032
  456EMI    H08 8651   2.803   2.724   1.459  0.1164 -0.7848 -1.2889
  456EMI    C05 8652   2.953   2.963   1.479 -0.9468 -1.0461 -0.1095
  456EMI    H0B 8653   2.934   3.015   1.572  1.6736  0.5960 -0.3710
  456EMI    H0C 8654   3.033   3.010   1.423 -0.9446 -0.8425  0.0651
  456EMI    H0D 8655   2.861   2.969   1.422  0.3524  2.6312 -2.1505
  456EMI    N00 8656   2.990   2.827   1.506  0.3338 -0.6489 -0.0733
  456EMI    C06 8657   3.232   2.559   1.559 -0.4846  0.5065  0.0331
  456EMI    H0F 8658   3.239   2.534   1.664 -3.5912  0.5440  0.3318
  456EMI    C0N 8659   3.209   2.434   1.481  0.8631 -0.1987  0.4275
  456EMI    H0O 8660   3.172   2.468   1.385  0.9119  2.5205  1.2843
  456EMI    H0P 8661   3.298   2.384   1.445  1.0601 -0.1485  0.8431
  456EMI    H0Q 8662   3.138   2.363   1.519 -2.5256  2.8982  0.4687
  456EMI    N02 8663   3.113   2.648   1.546 -0.5857  0.3045  0.2906
  456EMI    H0E 8664   3.319   2.611   1.523  2.5080 -1.3488  3.8144
  457EMI    C01 8665   2.897   4.450   0.896  0.6576  0.3693  0.0309
  457EMI    C04 8666   2.937   4.637   1.000 -0.5344 -0.1258  0.3659
  457EMI    C03 8667   3.049   4.589   0.938 -0.0878  0.2316 -0.1890
  457EMI    H07 8668   2.848   4.361   0.861 -1.1772  1.5273 -0.5399
  457EMI    H09 8669   2.921   4.721   1.064  2.4042  0.0447  1.0220
  457EMI    H08 8670   3.147   4.632   0.940  0.6396 -1.3645  0.1978
  457EMI    C05 8671   3.103   4.395   0.779 -0.4280 -0.1279  0.6692
  457EMI    H0B 8672   3.081   4.416   0.675  1.8514  2.3691  0.5766
  457EMI    H0C 8673   3.207   4.418   0.799 -0.6788  1.6555  0.1183
  457EMI    H0D 8674   3.092   4.291   0.805  0.0765 -0.3192  0.1494
  457EMI    N00 8675   3.019   4.471   0.871 -0.5423 -0.2888 -0.6661
  457EMI    C06 8676   2.699   4.551   1.015 -0.2623 -0.1235 -0.0787
  457EMI    H0F 8677   2.634   4.484   0.960 -0.3728 -0.5446  0.5619
  457EMI    C0N 8678   2.708   4.520   1.162  0.4325  0.1786 -0.4131
  457EMI    H0O 8679   2.614   4.531   1.216  0.9749  0.0440  0.5954
  457EMI    H0P 8680   2.754   4.426   1.192 -0.5125  0.0317  0.6706
  457EMI    H0Q 8681   2.767   4.603   1.199 -0.0023  0.0090  0.6970
  457EMI    N02 8682   2.839   4.544   0.964  0.2764  0.1162  0.3662
  457EMI    H0E 8683   2.664   4.648   0.983 -0.1251 -0.6210 -1.8412
  458EMI    C01 8684   1.724   3.127   3.999  0.6471  0.2121 -0.2157
  458EMI    C04 8685   1.645   3.324   4.053  0.1333 -0.1002 -0.5068
  458EMI    C03 8686   1.554   3.261   3.981 -0.0975  0.3070  0.3367
  458EMI    H07 8687   1.784   3.039   3.987  0.7922  0.2693  0.0765
  458EMI    H09 8688   1.629   3.418   4.102  0.6527 -0.5317  0.5079
  458EMI    H08 8689   1.458   3.297   3.953 -0.8482 -1.0806  1.0163
  458EMI    C05 8690   1.530   3.039   3.876  0.3910 -0.1101 -0.1992
  458EMI    H0B 8691   1.563   3.043   3.773  0.3315 -0.3688 -0.2275
  458EMI    H0C 8692   1.547   2.941   3.918  0.2619 -0.0155  0.0787
  458EMI    H0D 8693   1.427   3.070   3.889  0.0321 -1.8056  1.4730
  458EMI    N00 8694   1.601   3.139   3.949 -0.0334  0.5325 -0.3337
  458EMI    C06 8695   1.883   3.262   4.130  0.4265  0.4890  0.0277
  458EMI    H0F 8696   1.947   3.179   4.105  0.9054 -0.6657  4.4047
  458EMI    C0N 8697   1.963   3.384   4.079 -0.4167 -0.2714  0.2315
  458EMI    H0O 8698   1.905   3.476   4.087 -0.4331 -0.0461 -1.8256
  458EMI    H0P 8699   2.050   3.387   4.143 -0.8669  1.5744  0.8335
  458EMI    H0Q 8700   1.992   3.382   3.975 -0.9321  1.1039  0.0319
  458EMI    N02 8701   1.757   3.236   4.066 -0.4390  0.0829 -0.1299
  458EMI    H0E 8702   1.877   3.242   4.236 -0.3754 -0.7469 -0.2297
  459EMI    C01 8703   1.268   1.947   2.364  0.3367  0.4558 -0.4995
  459EMI    C04 8704   1.278   1.739   2.431 -0.4447 -0.1226 -0.1815
  459EMI    C03 8705   1.285   1.738   2.300  0.2169  0.4938  0.6231
  459EMI    H07 8706   1.259   2.053   2.355 -0.1250  0.3894 -0.8767
  459EMI    H09 8707   1.295   1.659   2.499  2.6553 -1.6313 -2.4253
  459EMI    H08 8708   1.300   1.654   2.235 -1.6962  0.7461 -0.2163
  459EMI    C05 8709   1.276   1.917   2.113 -0.0614 -0.6440  0.2893
  459EMI    H0B 8710   1.236   2.017   2.105  0.5779 -0.4463 -0.5830
  459EMI    H0C 8711   1.372   1.920   2.064  1.1764 -1.5771  2.5312
  459EMI    H0D 8712   1.204   1.852   2.068  2.2581 -1.3073 -2.7639
  459EMI    N00 8713   1.283   1.869   2.258  0.6416  0.0536  0.1114
  459EMI    C06 8714   1.232   1.917   2.612 -0.6089  0.2234  0.1827
  459EMI    H0F 8715   1.137   1.890   2.655 -0.0822  1.6182  2.3743
  459EMI    C0N 8716   1.350   1.866   2.685  0.0576  0.1811 -0.1921
  459EMI    H0O 8717   1.355   1.906   2.786 -3.8422 -1.7456  0.9195
  459EMI    H0P 8718   1.354   1.758   2.691 -1.1080  0.1617  0.3665
  459EMI    H0Q 8719   1.436   1.892   2.624 -0.0220  0.4040 -0.2103
  459EMI    N02 8720   1.255   1.870   2.470 -0.0644 -0.0421 -0.6419
  459EMI    H0E 8721   1.232   2.025   2.613  0.0427  0.2651  2.9993
  460EMI    C01 8722   2.733   4.946   4.864 -0.2348 -0.2518  0.0922
  460EMI    C04 8723   2.683   5.007   5.071  0.3075 -0.0373 -0.3165
  460EMI    C03 8724   2.749   4.891   5.074 -0.5000 -0.0325  0.0944
  460EMI    H07 8725   2.765   4.947   4.762  1.2648 -1.5901  0.5079
  460EMI    H09 8726   2.644   5.068   5.150 -1.2380  1.5575 -2.1877
  460EMI    H08 8727   2.776   4.826   5.154 -1.8423  1.2705  1.6694
  460EMI    C05 8728   2.869   4.751   4.899 -0.5734 -0.1012 -0.0948
  460EMI    H0B 8729   2.866   4.757   4.791  0.2143  0.9380 -0.0750
  460EMI    H0C 8730   2.971   4.753   4.932 -0.8366 -2.5487  1.0608
  460EMI    H0D 8731   2.811   4.662   4.921  1.2509 -1.0310  1.1610
  460EMI    N00 8732   2.786   4.861   4.949  0.5930 -0.0479  0.3595
  460EMI    C06 8733   2.620   5.173   4.891 -0.4619  0.2480  0.1869
  460EMI    H0F 8734   2.605   5.232   4.980  0.2536 -1.2256  1.3167
  460EMI    C0N 8735   2.706   5.263   4.810  0.0843 -0.1158  1.0945
  460EMI    H0O 8736   2.651   5.343   4.763  1.3543  1.5012  2.2311
  460EMI    H0P 8737   2.775   5.317   4.874 -1.1532  2.0737  0.6914
  460EMI    H0Q 8738   2.763   5.217   4.730 -1.9744 -1.8056  0.5184
  460EMI    N02 8739   2.680   5.048   4.937 -0.3759  0.1516  0.9168
  460EMI    H0E 8740   2.523   5.148   4.851  0.1739 -0.7765 -0.7841
  461EMI    C01 8741   3.548   3.078   0.467 -0.4263  0.1404  0.1740
  461EMI    C04 8742   3.750   3.022   0.390 -0.4911  0.4393  0.1905
  461EMI    C03 8743   3.741   3.151   0.371  0.0470  0.2560  0.3933
  461EMI    H07 8744   3.447   3.074   0.501 -0.6099 -1.9998 -0.5002
  461EMI    H09 8745   3.831   2.954   0.378 -1.3068 -0.2999 -1.3638
  461EMI    H08 8746   3.815   3.225   0.349  0.6586 -0.4823 -0.0632
  461EMI    C05 8747   3.548   3.318   0.407  0.4591  0.4871  0.1871
  461EMI    H0B 8748   3.479   3.323   0.490  0.0779  0.9345 -0.1521
  461EMI    H0C 8749   3.612   3.403   0.422  0.7366  0.2283  0.4885
  461EMI    H0D 8750   3.499   3.321   0.311  1.7981 -0.7646 -0.5740
  461EMI    N00 8751   3.613   3.182   0.413  0.0689 -0.3625  0.7798
  461EMI    C06 8752   3.594   2.841   0.473 -0.1004 -0.1586 -0.1845
  461EMI    H0F 8753   3.686   2.799   0.511  0.5959  1.9566  0.6142
  461EMI    C0N 8754   3.489   2.834   0.581 -0.0840 -0.4275  0.1275
  461EMI    H0O 8755   3.514   2.904   0.660 -1.2219  1.3981 -1.0560
  461EMI    H0P 8756   3.394   2.873   0.548 -0.6733 -1.4644  0.5603
  461EMI    H0Q 8757   3.488   2.734   0.621 -2.0185 -0.7938 -0.7456
  461EMI    N02 8758   3.627   2.976   0.441  0.0830 -0.1822  0.3341
  461EMI    H0E 8759   3.558   2.797   0.380  0.9435 -1.2787 -0.0843
  462EMI    C01 8760   1.012   0.885   0.354  0.2319  0.0138 -0.2457
  462EMI    C04 8761   1.162   1.011   0.274  0.6493 -0.4535 -0.7235
  462EMI    C03 8762   1.128   1.056   0.397  0.3346  0.0901  0.2689
  462EMI    H07 8763   0.940   0.808   0.367 -0.3488  0.5936  0.0635
  462EMI    H09 8764   1.244   1.041   0.212  1.4681  1.6420  1.1956
  462EMI    H08 8765   1.180   1.130   0.453  0.9310 -0.2241  0.1412
  462EMI    C05 8766   0.955   0.978   0.570  0.1529 -0.1191  0.0345
  462EMI    H0B 8767   0.864   1.035   0.558  0.2813 -0.0396 -0.6033
  462EMI    H0C 8768   0.931   0.884   0.617 -0.3100 -0.0230 -0.0029
  462EMI    H0D 8769   1.013   1.033   0.642 -1.8574  0.0238  1.6290
  462EMI    N00 8770   1.027   0.976   0.444  0.2152 -0.3161  0.1485
  462EMI    C06 8771   1.045   0.867   0.096  0.2762 -0.9384 -0.2011
  462EMI    H0F 8772   1.145   0.833   0.070  1.0590 -1.6123  3.1630
  462EMI    C0N 8773   0.943   0.764   0.090  0.1669 -0.1593  0.0885
  462EMI    H0O 8774   0.973   0.672   0.139  1.1095  0.5000  0.7742
  462EMI    H0P 8775   0.844   0.789   0.126 -0.9950 -2.6186 -1.1028
  462EMI    H0Q 8776   0.940   0.749  -0.017  0.0468  0.8737 -0.0635
  462EMI    N02 8777   1.071   0.914   0.236  0.4677 -0.5005  0.1908
  462EMI    H0E 8778   1.017   0.952   0.036 -0.5975 -0.5798  0.6840
  463EMI    C01 8779   1.480   2.745   4.669 -0.0602 -0.1350  0.8057
  463EMI    C04 8780   1.458   2.858   4.481 -0.3934  0.2329 -0.1206
  463EMI    C03 8781   1.571   2.892   4.535 -0.5334  0.4300 -0.5399
  463EMI    H07 8782   1.464   2.666   4.739 -0.9213 -0.9034 -0.2170
  463EMI    H09 8783   1.418   2.885   4.386  1.0210 -0.2149 -0.8760
  463EMI    H08 8784   1.652   2.955   4.504 -0.1621 -0.4485 -1.3983
  463EMI    C05 8785   1.699   2.834   4.740 -0.0411  0.2445 -0.2621
  463EMI    H0B 8786   1.662   2.814   4.840 -0.0129  2.1041  0.1430
  463EMI    H0C 8787   1.765   2.756   4.704  1.6487  1.3553  0.3079
  463EMI    H0D 8788   1.762   2.921   4.729  0.9483 -0.4796 -0.4634
  463EMI    N00 8789   1.581   2.828   4.656 -0.1417  0.2222  0.0329
  463EMI    C06 8790   1.271   2.681   4.546 -0.0095 -0.3622  0.4505
  463EMI    H0F 8791   1.290   2.575   4.543  1.2022 -0.1317 -0.8877
  463EMI    C0N 8792   1.159   2.727   4.634 -0.0014  0.0765  0.2344
  463EMI    H0O 8793   1.192   2.706   4.735  0.8182 -2.0949 -0.4190
  463EMI    H0P 8794   1.134   2.832   4.624 -1.7225 -0.3535 -0.4618
  463EMI    H0Q 8795   1.071   2.665   4.616 -1.8703  2.7656 -0.4115
  463EMI    N02 8796   1.399   2.760   4.567  0.4636  0.1781 -0.1781
  463EMI    H0E 8797   1.250   2.692   4.441  0.9405 -1.4323  0.1298
  464EMI    C01 8798   4.463   4.922   1.523 -0.3978  0.1703  0.5965
  464EMI    C04 8799   4.448   4.786   1.690 -0.0003  0.5045  0.2564
  464EMI    C03 8800   4.431   4.718   1.575 -0.3916 -0.1829 -0.1403
  464EMI    H07 8801   4.459   5.015   1.470 -0.1039  0.0679  0.3909
  464EMI    H09 8802   4.438   4.751   1.791 -1.8885 -1.2984 -0.4729
  464EMI    H08 8803   4.416   4.612   1.569 -0.6081 -0.2001  0.6677
  464EMI    C05 8804   4.412   4.777   1.329 -0.1415 -0.1205  0.3277
  464EMI    H0B 8805   4.307   4.753   1.323  0.1719 -1.5925  0.3907
  464EMI    H0C 8806   4.435   4.867   1.273 -1.6058  0.5793  0.8002
  464EMI    H0D 8807   4.481   4.709   1.282 -1.4035  0.4503 -2.5549
  464EMI    N00 8808   4.448   4.806   1.468 -0.4833 -0.5312  0.4864
  464EMI    C06 8809   4.532   5.015   1.747 -0.1854 -0.1416 -0.3650
  464EMI    H0F 8810   4.458   5.066   1.808  1.1934  2.2976 -0.6037
  464EMI    C0N 8811   4.666   4.986   1.813  0.4879 -0.0351 -0.2298
  464EMI    H0O 8812   4.657   4.903   1.882 -0.4503  0.8346  0.7238
  464EMI    H0P 8813   4.749   4.965   1.747  1.1478  1.5573  0.0484
  464EMI    H0Q 8814   4.707   5.057   1.883  1.0636 -2.0075  1.5340
  464EMI    N02 8815   4.481   4.909   1.652 -0.4333 -0.8565  0.4979
  464EMI    H0E 8816   4.559   5.095   1.680 -1.9875 -0.7708 -1.9288
  465EMI    C01 8817   3.378   2.784   1.015 -0.0038  0.3434  0.2103
  465EMI    C04 8818   3.252   2.908   1.137  0.5325 -0.2333 -0.1834
  465EMI    C03 8819   3.191   2.892   1.017  0.0704  0.0302 -0.3726
  465EMI    H07 8820   3.456   2.720   0.979 -1.4786 -1.6844  0.4460
  465EMI    H09 8821   3.225   2.972   1.219 -0.7826 -1.5742  0.4731
  465EMI    H08 8822   3.097   2.927   0.980 -1.7266 -4.1418 -0.4219
  465EMI    C05 8823   3.225   2.744   0.816  0.2733  0.2551 -0.1783
  465EMI    H0B 8824   3.221   2.819   0.739  1.0687 -0.9444 -1.4400
  465EMI    H0C 8825   3.292   2.663   0.794 -1.1149 -1.3013  1.0237
  465EMI    H0D 8826   3.123   2.708   0.821 -0.3773  1.8066 -1.4149
  465EMI    N00 8827   3.266   2.799   0.948 -0.0024 -0.0943  0.1827
  465EMI    C06 8828   3.483   2.872   1.228  0.7886  0.8805  0.2093
  465EMI    H0F 8829   3.493   2.974   1.261  0.3305  0.8701  0.3812
  465EMI    C0N 8830   3.466   2.782   1.351  0.3639 -0.1923  0.0016
  465EMI    H0O 8831   3.386   2.824   1.411  0.9451  4.4706 -2.0989
  465EMI    H0P 8832   3.445   2.679   1.323 -0.4022 -0.9478  2.9550
  465EMI    H0Q 8833   3.565   2.786   1.396  1.0347  2.3750 -1.5339
  465EMI    N02 8834   3.375   2.848   1.133 -0.3938  0.5834 -0.0713
  465EMI    H0E 8835   3.578   2.853   1.181 -0.3326 -1.7364 -1.2109
  466EMI    C01 8836   1.135   2.727   0.564 -0.0845 -0.6314  0.9904
  466EMI    C04 8837   1.156   2.651   0.760 -0.2417 -0.0201  0.5474
  466EMI    C03 8838   1.118   2.548   0.681 -0.1663 -0.7435  0.1663
  466EMI    H07 8839   1.132   2.795   0.481 -0.1405  0.3787  1.7919
  466EMI    H09 8840   1.176   2.642   0.865  0.7082  3.4323  0.7975
  466EMI    H08 8841   1.098   2.447   0.709 -0.5148 -1.8218 -3.4620
  466EMI    C05 8842   1.039   2.528   0.447  0.2847  0.0812 -0.5382
  466EMI    H0B 8843   0.979   2.602   0.397  0.8115  0.8710 -0.0353
  466EMI    H0C 8844   1.117   2.487   0.384  1.8253 -0.3236  1.4998
  466EMI    H0D 8845   0.975   2.452   0.490 -0.4190  1.7043  1.4500
  466EMI    N00 8846   1.117   2.598   0.550 -0.2514  0.6056  0.1398
  466EMI    C06 8847   1.232   2.894   0.732  0.3180 -0.5824  0.1661
  466EMI    H0F 8848   1.196   2.965   0.658 -0.9310 -1.5141 -0.1575
  466EMI    C0N 8849   1.179   2.930   0.870  0.3903 -0.6327  0.3204
  466EMI    H0O 8850   1.195   3.036   0.889 -0.3056 -0.0356 -2.0143
  466EMI    H0P 8851   1.072   2.921   0.851  0.4787  0.1487 -0.6179
  466EMI    H0Q 8852   1.224   2.858   0.937  1.4344 -1.0281 -0.7833
  466EMI    N02 8853   1.180   2.763   0.684  0.8776 -0.2883 -0.1585
  466EMI    H0E 8854   1.340   2.895   0.731  0.4271  2.4911  1.4140
  467EMI    C01 8855   0.438   2.298   0.348 -0.4452 -0.1443 -0.0218
  467EMI    C04 8856   0.529   2.111   0.402 -0.0753 -0.2655 -0.0548
  467EMI    C03 8857   0.553   2.193   0.502  0.1962  0.2057 -0.1559
  467EMI    H07 8858   0.382   2.377   0.302 -2.4985 -0.7099  1.3353
  467EMI    H09 8859   0.553   2.008   0.393 -2.0895 -0.8143  0.1946
  467EMI    H08 8860   0.604   2.176   0.595  0.5087 -0.8914 -0.5080
  467EMI    C05 8861   0.510   2.443   0.541  0.2568  0.1760 -0.4296
  467EMI    H0B 8862   0.600   2.495   0.515  0.3152 -0.4901 -1.6720
  467EMI    H0C 8863   0.435   2.512   0.503  0.1752 -0.3973 -1.3638
  467EMI    H0D 8864   0.500   2.409   0.643  2.5198  1.2593  0.2081
  467EMI    N00 8865   0.501   2.317   0.464  0.3935  0.6583 -0.3919
  467EMI    C06 8866   0.409   2.116   0.181 -0.1712  0.4689  0.1124
  467EMI    H0F 8867   0.452   2.018   0.169  0.2377  0.3162  2.4558
  467EMI    C0N 8868   0.257   2.100   0.183 -0.5989  0.2727 -0.7162
  467EMI    H0O 8869   0.222   2.033   0.106 -1.9202  0.2580 -0.1340
  467EMI    H0P 8870   0.237   2.044   0.274  1.5800 -1.8681 -1.4602
  467EMI    H0Q 8871   0.209   2.196   0.200  0.8218  1.4595 -2.9242
  467EMI    N02 8872   0.459   2.176   0.303  0.4171 -0.4831  0.2032
  467EMI    H0E 8873   0.454   2.170   0.098  5.2019  0.7276  2.7434
  468EMI    C01 8874   1.235   0.013   1.780  0.1986  0.4057 -0.7517
  468EMI    C04 8875   1.135  -0.125   1.646  0.2349 -0.4685  0.4208
  468EMI    C03 8876   1.079  -0.002   1.635  0.3763 -0.2552  0.1667
  468EMI    H07 8877   1.304   0.053   1.852  2.0333 -1.6734 -1.2370
  468EMI    H09 8878   1.121  -0.216   1.591  0.8377 -1.1267  1.3477
  468EMI    H08 8879   1.002   0.033   1.570 -0.1302  0.0102  0.8962
  468EMI    C05 8880   1.102   0.219   1.747  0.0287 -0.1922 -0.3626
  468EMI    H0B 8881   1.070   0.263   1.654 -1.4283 -1.8867 -0.7117
  468EMI    H0C 8882   1.017   0.207   1.813 -1.2901 -0.6628 -2.0915
  468EMI    H0D 8883   1.170   0.290   1.793  0.8215 -0.1856 -1.4935
  468EMI    N00 8884   1.145   0.085   1.719 -0.2175 -0.1821 -0.5731
  468EMI    C06 8885   1.327  -0.215   1.787  0.3522 -0.4476 -0.1441
  468EMI    H0F 8886   1.267  -0.280   1.849  0.4751  0.1986  0.6572
  468EMI    C0N 8887   1.402  -0.288   1.673 -1.0224 -0.5085 -1.0418
  468EMI    H0O 8888   1.484  -0.352   1.704 -0.5763 -0.2818 -1.7256
  468EMI    H0P 8889   1.327  -0.345   1.619 -1.5669 -0.3160 -0.4933
  468EMI    H0Q 8890   1.427  -0.211   1.601 -0.9757  1.0191  0.5507
  468EMI    N02 8891   1.231  -0.110   1.742 -0.0165  0.0633  0.4373
  468EMI    H0E 8892   1.401  -0.174   1.854  0.6013  1.1276 -1.3222
  469EMI    C01 8893   2.504   1.136   0.063  0.3689 -0.1719 -0.9685
  469EMI    C04 8894   2.416   1.178  -0.128 -0.3791  0.3182 -0.2201
  469EMI    C03 8895   2.538   1.118  -0.153 -0.5069 -0.0232 -0.6853
  469EMI    H07 8896   2.516   1.120   0.168  2.7574 -3.5846 -1.5915
  469EMI    H09 8897   2.336   1.200  -0.195 -0.7065 -0.6726 -0.1577
  469EMI    H08 8898   2.594   1.080  -0.236  2.2219 -0.4927  1.2355
  469EMI    C05 8899   2.721   1.030  -0.005 -0.4184  0.1990  0.2406
  469EMI    H0B 8900   2.740   0.955  -0.081  0.0401  2.0436 -1.5667
  469EMI    H0C 8901   2.805   1.098  -0.004  0.6441 -1.0617 -0.3608
  469EMI    H0D 8902   2.705   0.974   0.086 -1.5895 -0.5918 -0.4301
  469EMI    N00 8903   2.592   1.097  -0.029 -0.0779 -0.0121  0.0244
  469EMI    C06 8904   2.281   1.240   0.079 -0.5228 -0.0557 -0.0703
  469EMI    H0F 8905   2.289   1.347   0.092 -1.2734 -0.0092  0.0088
  469EMI    C0N 8906   2.141   1.206   0.026 -0.0428 -0.1197  0.3468
  469EMI    H0O 8907   2.126   1.258  -0.069  2.7376  1.4167  0.6490
  469EMI    H0P 8908   2.133   1.098   0.023  0.7914 -0.1799  0.2237
  469EMI    H0Q 8909   2.066   1.236   0.098  0.0221 -1.0794  0.8325
  469EMI    N02 8910   2.400   1.192   0.008  0.0023  0.3711 -0.0620
  469EMI    H0E 8911   2.305   1.203   0.178 -0.1190 -0.3096 -0.2575
  470EMI    C01 8912   2.186   4.179   2.516 -0.0203 -0.4097 -0.2758
  470EMI    C04 8913   2.298   4.266   2.348  0.0369 -0.2394 -0.3339
  470EMI    C03 8914   2.321   4.341   2.456 -0.6430 -0.2277 -0.2682
  470EMI    H07 8915   2.126   4.115   2.578  0.0527 -0.2656 -0.0548
  470EMI    H09 8916   2.344   4.261   2.251  3.2441  0.4540  1.0239
  470EMI    H08 8917   2.386   4.424   2.471  1.5341 -1.2205 -3.2682
  470EMI    C05 8918   2.253   4.342   2.696 -0.5478 -0.6435 -0.7804
  470EMI    H0B 8919   2.199   4.266   2.751  0.4557 -1.5885 -1.0662
  470EMI    H0C 8920   2.356   4.361   2.723 -0.8524  0.1828 -0.1525
  470EMI    H0D 8921   2.205   4.438   2.706 -0.6647 -0.6994 -0.7913
  470EMI    N00 8922   2.253   4.288   2.564  0.3629  0.1542  0.7130
  470EMI    C06 8923   2.193   4.031   2.327  0.0870  0.7655  0.0442
  470EMI    H0F 8924   2.187   4.049   2.221  0.2124 -2.0705 -0.5086
  470EMI    C0N 8925   2.293   3.927   2.370  0.5935  0.5383  0.3184
  470EMI    H0O 8926   2.324   3.952   2.470 -0.0968 -1.0548  0.9773
  470EMI    H0P 8927   2.252   3.829   2.346 -1.4814  1.9376 -2.4908
  470EMI    H0Q 8928   2.390   3.938   2.322  0.3707  1.7227  0.1260
  470EMI    N02 8929   2.221   4.159   2.394  0.1472  0.5602  0.0548
  470EMI    H0E 8930   2.091   4.000   2.341  0.0719  0.5557 -0.5229
  471EMI    C01 8931   4.006   2.944   4.464 -0.3259  0.5503 -0.1911
  471EMI    C04 8932   3.809   2.991   4.401  0.0947 -0.5803  0.2116
  471EMI    C03 8933   3.847   2.884   4.334  0.5047 -0.4106  0.5517
  471EMI    H07 8934   4.102   2.947   4.511 -0.7994  0.0453  0.8620
  471EMI    H09 8935   3.715   3.042   4.393 -0.1862 -1.1379 -0.0593
  471EMI    H08 8936   3.795   2.821   4.265  0.0888 -2.3106  2.4992
  471EMI    C05 8937   4.050   2.760   4.301 -0.2035  0.0591  0.2324
  471EMI    H0B 8938   4.031   2.751   4.195 -0.4168 -0.2324  0.2950
  471EMI    H0C 8939   4.155   2.783   4.312 -0.1544  0.4937 -0.9922
  471EMI    H0D 8940   4.031   2.659   4.332 -3.9843 -0.6099 -3.3786
  471EMI    N00 8941   3.972   2.859   4.368 -0.5955  0.3069 -0.3190
  471EMI    C06 8942   3.908   3.147   4.564  0.3735 -0.2471 -0.4172
  471EMI    H0F 8943   3.912   3.238   4.506  1.0269 -1.1939 -1.9327
  471EMI    C0N 8944   3.810   3.150   4.675 -0.1355  0.5030 -0.1123
  471EMI    H0O 8945   3.818   3.238   4.739  1.3843  1.7951 -1.9654
  471EMI    H0P 8946   3.711   3.146   4.632 -0.0230 -0.7241 -0.2765
  471EMI    H0Q 8947   3.822   3.055   4.725  2.8503 -0.9586 -3.1707
  471EMI    N02 8948   3.911   3.023   4.487 -0.4961 -0.9479  0.2195
  471EMI    H0E 8949   4.009   3.143   4.603 -0.4715  0.1977  1.9954
  472EMI    C01 8950   4.676   3.334   1.135 -0.1378  0.2787 -0.1790
  472EMI    C04 8951   4.675   3.340   0.916  0.3892  0.3028 -0.8028
  472EMI    C03 8952   4.781   3.403   0.954  1.1734 -0.1348  0.3163
  472EMI    H07 8953   4.647   3.319   1.237  0.1220 -0.4112 -0.1955
  472EMI    H09 8954   4.623   3.315   0.826 -2.4474  0.3055  0.7195
  472EMI    H08 8955   4.853   3.449   0.890  0.4333  1.0791  0.3222
  472EMI    C05 8956   4.892   3.464   1.169  0.8698 -0.1052  0.5579
  472EMI    H0B 8957   4.947   3.538   1.112  0.9498  0.2512  1.0976
  472EMI    H0C 8958   4.842   3.496   1.259 -1.1396  0.6935 -0.7746
  472EMI    H0D 8959   4.958   3.383   1.196 -2.2233 -2.1483  2.6132
  472EMI    N00 8960   4.788   3.398   1.091 -0.0666  0.3430  0.4006
  472EMI    C06 8961   4.475   3.225   1.043  0.1772  0.2407 -0.3095
  472EMI    H0F 8962   4.459   3.154   0.963  1.1431 -0.9414  0.4921
  472EMI    C0N 8963   4.472   3.140   1.167  0.2313 -0.1464 -0.1513
  472EMI    H0O 8964   4.381   3.082   1.162  1.3740 -2.4520  2.9463
  472EMI    H0P 8965   4.548   3.062   1.166 -0.3810 -0.7859  1.3157
  472EMI    H0Q 8966   4.475   3.194   1.261 -0.3340 -0.2892 -0.0501
  472EMI    N02 8967   4.608   3.293   1.031 -0.2471 -0.0454  0.3622
  472EMI    H0E 8968   4.393   3.295   1.042  2.3160  2.9252  0.1522
  473EMI    C01 8969   4.165   0.111   0.883  0.1608  0.7438  0.0109
  473EMI    C04 8970   4.145   0.296   0.998 -0.3273  0.2007 -0.3609
  473EMI    C03 8971   4.128   0.324   0.865  0.1661  0.1384  0.6553
  473EMI    H07 8972   4.173   0.010   0.850 -1.8776  0.5958 -0.1318
  473EMI    H09 8973   4.144   0.368   1.077 -0.7814 -1.5267  1.2898
  473EMI    H08 8974   4.104   0.415   0.815 -1.9491 -0.5916  0.2664
  473EMI    C05 8975   4.144   0.199   0.647 -0.3924 -0.1004 -0.1386
  473EMI    H0B 8976   4.048   0.241   0.618  0.1753  0.3384 -1.4721
  473EMI    H0C 8977   4.220   0.263   0.603 -0.0258  0.2792  0.9981
  473EMI    H0D 8978   4.156   0.099   0.610 -2.3387 -0.3429 -0.2369
  473EMI    N00 8979   4.153   0.206   0.793  0.5023 -0.0714  0.0458
  473EMI    C06 8980   4.231   0.095   1.118  0.3182 -0.0926  0.1377
  473EMI    H0F 8981   4.165   0.121   1.200 -0.7071 -2.0463  0.0012
  473EMI    C0N 8982   4.203  -0.058   1.110 -0.2436 -0.6192 -0.3527
  473EMI    H0O 8983   4.291  -0.103   1.066 -1.6601 -2.7836 -1.1350
  473EMI    H0P 8984   4.203  -0.090   1.213  0.5892 -0.6897 -0.3678
  473EMI    H0Q 8985   4.114  -0.096   1.061 -0.6315 -1.8287  1.1976
  473EMI    N02 8986   4.182   0.164   1.002  0.6656 -0.0189  0.9425
  473EMI    H0E 8987   4.334   0.115   1.140  1.0488 -3.1744 -0.0036
  474EMI    C01 8988   4.309   0.513   0.141  0.0556 -0.6602  0.3863
  474EMI    C04 8989   4.335   0.301   0.131 -0.0906  0.9420  0.2598
  474EMI    C03 8990   4.454   0.357   0.110  0.0760  0.9313  0.7569
  474EMI    H07 8991   4.259   0.606   0.158 -2.4620 -1.4590 -1.8851
  474EMI    H09 8992   4.314   0.197   0.121  1.1634  0.5451  1.5097
  474EMI    H08 8993   4.543   0.312   0.072 -1.2737  0.2135 -1.7550
  474EMI    C05 8994   4.543   0.594   0.135  0.5523 -0.2304 -0.1261
  474EMI    H0B 8995   4.597   0.620   0.045  2.2945  1.9345  1.4328
  474EMI    H0C 8996   4.495   0.689   0.156 -0.4300 -0.5183 -0.9595
  474EMI    H0D 8997   4.621   0.575   0.207  0.1669  0.6153  0.5345
  474EMI    N00 8998   4.436   0.494   0.127 -0.3833  0.6848  0.2396
  474EMI    C06 8999   4.100   0.383   0.155 -0.0693 -0.0025 -0.2677
  474EMI    H0F 9000   4.065   0.485   0.150  0.0489  0.0242 -0.6150
  474EMI    C0N 9001   4.043   0.308   0.032 -0.3661  0.6611 -0.0732
  474EMI    H0O 9002   4.069   0.366  -0.056 -0.9271 -0.2505 -0.8554
  474EMI    H0P 9003   4.091   0.214   0.008 -1.3564 -0.3299  1.6020
  474EMI    H0Q 9004   3.935   0.305   0.040 -0.2389  0.4433  4.7814
  474EMI    N02 9005   4.245   0.402   0.141 -0.0782  0.0552  0.6616
  474EMI    H0E 9006   4.080   0.337   0.250  1.3048 -0.2961 -0.1014
  475EMI    C01 9007   2.624   4.587   4.345 -0.0656 -0.3906 -0.1870
  475EMI    C04 9008   2.430   4.531   4.422  0.2441 -0.2950 -0.0165
  475EMI    C03 9009   2.516   4.532   4.527 -0.8294 -0.3094 -0.2737
  475EMI    H07 9010   2.703   4.627   4.285  1.5225  0.4939  2.3495
  475EMI    H09 9011   2.326   4.507   4.418  0.8206 -3.0542 -0.5763
  475EMI    H08 9012   2.490   4.511   4.628 -1.2153  0.2745 -0.2469
  475EMI    C05 9013   2.759   4.598   4.550 -0.1065 -0.5282  0.1716
  475EMI    H0B 9014   2.771   4.525   4.629  0.9148 -1.1743 -0.5511
  475EMI    H0C 9015   2.841   4.591   4.480  0.0713  1.4163  0.1350
  475EMI    H0D 9016   2.761   4.701   4.583 -0.5520  0.5295 -2.8497
  475EMI    N00 9017   2.638   4.574   4.474 -0.2019 -0.1267  0.4749
  475EMI    C06 9018   2.448   4.564   4.172  0.6211 -0.4967  0.5548
  475EMI    H0F 9019   2.422   4.469   4.130 -0.5212  0.7465 -1.7455
  475EMI    C0N 9020   2.339   4.668   4.171  0.2153  0.7612 -0.2098
  475EMI    H0O 9021   2.324   4.704   4.070  0.4356 -1.2579 -1.0198
  475EMI    H0P 9022   2.247   4.624   4.207  0.8811 -0.4274  0.1084
  475EMI    H0Q 9023   2.362   4.755   4.232  0.4968  0.0386  0.7346
  475EMI    N02 9024   2.502   4.555   4.306  0.0165  0.0394 -0.2538
  475EMI    H0E 9025   2.519   4.610   4.105 -1.2244  1.3893 -0.2056
  476EMI    C01 9026   0.253   1.464   4.849 -0.1645 -0.0460 -0.2989
  476EMI    C04 9027   0.172   1.650   4.774 -0.3680  0.4449  0.3085
  476EMI    C03 9028   0.089   1.597   4.860  0.1943 -0.5624  0.2648
  476EMI    H07 9029   0.314   1.380   4.875  0.8544  1.1635  1.4282
  476EMI    H09 9030   0.157   1.742   4.722 -1.6318 -1.5187 -3.0702
  476EMI    H08 9031  -0.004   1.640   4.890 -0.6978 -0.0006 -2.9899
  476EMI    C05 9032   0.068   1.387   4.998 -0.2955 -0.0496 -0.2258
  476EMI    H0B 9033  -0.039   1.401   4.989 -0.1651 -0.0516 -1.9663
  476EMI    H0C 9034   0.081   1.281   4.981  2.3271  0.3423 -1.0117
  476EMI    H0D 9035   0.083   1.422   5.099  0.8241 -0.1715 -0.3429
  476EMI    N00 9036   0.136   1.476   4.903 -0.1365  0.2980 -0.1810
  476EMI    C06 9037   0.401   1.584   4.684 -0.1253 -0.4366  0.0126
  476EMI    H0F 9038   0.449   1.491   4.659  1.7845  0.9936 -2.0269
  476EMI    C0N 9039   0.354   1.655   4.562 -0.1243  1.0076 -0.1849
  476EMI    H0O 9040   0.270   1.615   4.506 -0.0671  1.6096 -0.7149
  476EMI    H0P 9041   0.335   1.758   4.591  3.1994  1.2763  1.3783
  476EMI    H0Q 9042   0.441   1.660   4.498 -0.2306  4.1673 -0.2608
  476EMI    N02 9043   0.287   1.571   4.775  0.3242 -0.3938  0.3205
  476EMI    H0E 9044   0.471   1.648   4.737 -0.4526  0.0134 -0.0925
  477EMI    C01 9045   3.644   0.854   3.145  0.1522  0.5533 -0.0518
  477EMI    C04 9046   3.656   1.063   3.080 -0.3147  0.1182 -0.7433
  477EMI    C03 9047   3.535   1.046   3.138 -0.4352  0.0922  0.3395
  477EMI    H07 9048   3.670   0.751   3.156 -1.3175  0.1990  0.4227
  477EMI    H09 9049   3.699   1.147   3.029  2.3856 -0.3949  0.5147
  477EMI    H08 9050   3.457   1.117   3.156 -1.5571 -1.4291  1.7658
  477EMI    C05 9051   3.414   0.854   3.234 -0.4082 -0.0514  0.3356
  477EMI    H0B 9052   3.427   0.879   3.338  2.6661 -0.3498  0.1162
  477EMI    H0C 9053   3.331   0.900   3.183 -1.6576 -0.6525  1.7181
  477EMI    H0D 9054   3.416   0.748   3.211 -0.1890  0.0981 -0.3466
  477EMI    N00 9055   3.527   0.914   3.176 -0.2264  0.2849  0.0863
  477EMI    C06 9056   3.850   0.916   3.037 -0.0256  0.8312  0.5169
  477EMI    H0F 9057   3.868   0.983   2.953 -0.5374 -0.6592 -0.8424
  477EMI    C0N 9058   3.954   0.917   3.154 -0.5403  0.0642 -0.0047
  477EMI    H0O 9059   4.046   0.898   3.100 -0.8593  0.5856 -0.7530
  477EMI    H0P 9060   3.963   1.011   3.206  0.1060 -0.2735  0.4972
  477EMI    H0Q 9061   3.934   0.834   3.221  0.6929 -1.9399 -1.9787
  477EMI    N02 9062   3.718   0.938   3.085 -0.2655 -0.9615  0.4578
  477EMI    H0E 9063   3.851   0.823   2.983 -1.8273  1.5421 -0.8340
  478EMI    C01 9064   2.768   2.507   2.020  0.4890  0.0609  0.0588
  478EMI    C04 9065   2.761   2.566   1.805  0.0184 -0.6536  0.0062
  478EMI    C03 9066   2.727   2.669   1.883 -0.1453 -0.3247  0.2135
  478EMI    H07 9067   2.773   2.438   2.101  1.7066  2.4686  2.1439
  478EMI    H09 9068   2.777   2.553   1.700  2.6998 -3.4777  0.6152
  478EMI    H08 9069   2.699   2.768   1.858  1.9469  0.4566  0.7816
  478EMI    C05 9070   2.678   2.716   2.128 -0.3114 -0.6415 -0.0173
  478EMI    H0B 9071   2.597   2.787   2.116  0.7224  0.3513 -1.4938
  478EMI    H0C 9072   2.671   2.651   2.214 -1.9419 -0.4902  0.0056
  478EMI    H0D 9073   2.765   2.779   2.141 -2.0386  1.4185  2.6975
  478EMI    N00 9074   2.717   2.631   2.020 -0.3665  0.6406  0.7114
  478EMI    C06 9075   2.861   2.346   1.860  0.7236 -0.3065  0.2342
  478EMI    H0F 9076   2.797   2.285   1.799  1.6940  0.7998 -2.0176
  478EMI    C0N 9077   2.997   2.359   1.810 -0.9283 -0.1261  0.4991
  478EMI    H0O 9078   3.033   2.282   1.742 -0.5265  0.9476 -0.5479
  478EMI    H0P 9079   3.005   2.456   1.761  0.3671 -1.5669 -2.4292
  478EMI    H0Q 9080   3.070   2.383   1.886 -1.1162  3.4148 -0.2946
  478EMI    N02 9081   2.795   2.468   1.893  0.0610 -0.8244 -0.9536
  478EMI    H0E 9082   2.859   2.279   1.944  1.5667 -2.3202 -1.2716
  479EMI    C01 9083   1.283   0.700   0.766  0.5335 -0.4726 -0.3624
  479EMI    C04 9084   1.425   0.771   0.914  0.4472  0.3886  0.1480
  479EMI    C03 9085   1.445   0.841   0.805 -0.1898 -0.2375 -0.7839
  479EMI    H07 9086   1.202   0.647   0.722  0.2277 -0.7954  0.5729
  479EMI    H09 9087   1.467   0.761   1.012 -0.5120  1.5283  0.7061
  479EMI    H08 9088   1.523   0.913   0.794  0.8765 -1.3550 -0.7491
  479EMI    C05 9089   1.356   0.850   0.571  0.2835 -0.3667 -0.7562
  479EMI    H0B 9090   1.457   0.873   0.541 -0.1111  1.6478 -0.6988
  479EMI    H0C 9091   1.315   0.770   0.511 -0.2097  0.0374 -0.9673
  479EMI    H0D 9092   1.297   0.939   0.550 -0.0048 -0.5898 -0.9014
  479EMI    N00 9093   1.353   0.799   0.712  0.0324  0.4214  0.4610
  479EMI    C06 9094   1.260   0.593   0.998 -0.1934  0.7091 -0.4719
  479EMI    H0F 9095   1.322   0.505   1.008 -0.3365  0.5944 -0.5915
  479EMI    C0N 9096   1.242   0.668   1.127  0.0095  0.3154  0.1962
  479EMI    H0O 9097   1.202   0.613   1.211  2.4177 -1.3987  0.3461
  479EMI    H0P 9098   1.332   0.724   1.154 -1.8009  3.4958  0.0789
  479EMI    H0Q 9099   1.170   0.749   1.119 -1.6336 -1.0865  0.2967
  479EMI    N02 9100   1.319   0.684   0.888  0.0245 -0.0015 -0.2165
  479EMI    H0E 9101   1.156   0.570   0.982  0.3252 -2.8392  0.5583
  480EMI    C01 9102   2.664   1.388   0.985 -0.0509 -0.6562  0.0899
  480EMI    C04 9103   2.728   1.524   0.830 -0.4004 -0.2248 -0.7743
  480EMI    C03 9104   2.781   1.565   0.945  0.1537 -0.0822 -0.1379
  480EMI    H07 9105   2.617   1.303   1.029  2.1027 -2.5494 -1.0254
  480EMI    H09 9106   2.738   1.567   0.732  0.2733 -1.4448 -1.2696
  480EMI    H08 9107   2.856   1.638   0.968  0.5610 -0.6308  0.3248
  480EMI    C05 9108   2.774   1.478   1.174 -0.3583  0.6710  0.0410
  480EMI    H0B 9109   2.818   1.572   1.201  2.8547 -0.3096 -1.2624
  480EMI    H0C 9110   2.706   1.449   1.252 -0.1626  0.8563  0.2825
  480EMI    H0D 9111   2.849   1.400   1.186  1.2362  1.9214 -1.2349
  480EMI    N00 9112   2.722   1.488   1.040 -0.2046  0.2847  0.4660
  480EMI    C06 9113   2.588   1.333   0.754 -0.1147 -0.8615 -0.7112
  480EMI    H0F 9114   2.654   1.265   0.702  1.0775 -0.5026  0.2930
  480EMI    C0N 9115   2.471   1.258   0.805 -0.0482  0.0027 -0.5707
  480EMI    H0O 9116   2.406   1.210   0.733  0.6180 -1.3314 -0.3110
  480EMI    H0P 9117   2.496   1.176   0.871 -1.8420  0.3748  0.6334
  480EMI    H0Q 9118   2.402   1.313   0.868 -0.2222 -0.0249 -0.7354
  480EMI    N02 9119   2.663   1.407   0.858 -0.3942 -0.4865  0.1991
  480EMI    H0E 9120   2.553   1.405   0.683  1.5686  0.2727 -0.4450
  481EMI    C01 9121   0.160   3.579   3.148 -0.2172 -0.4690 -0.1191
  481EMI    C04 9122   0.125   3.772   3.052  0.1838  0.3065  0.7080
  481EMI    C03 9123   0.254   3.734   3.027  0.2699  0.2002  0.1745
  481EMI    H07 9124   0.149   3.506   3.225 -0.1555  1.4702  1.8105
  481EMI    H09 9125   0.079   3.862   3.020  0.9184  0.1788 -0.7564
  481EMI    H08 9126   0.333   3.780   2.972  1.2725 -1.7377 -0.0887
  481EMI    C05 9127   0.403   3.538   3.097 -0.2454  0.0507 -0.5740
  481EMI    H0B 9128   0.415   3.443   3.147  1.7806 -0.1467 -1.3825
  481EMI    H0C 9129   0.449   3.529   3.000  1.3901  0.0627  0.1693
  481EMI    H0D 9130   0.462   3.606   3.157 -1.0117  0.7130 -0.5552
  481EMI    N00 9131   0.273   3.609   3.087  0.0270 -1.1492 -0.0891
  481EMI    C06 9132  -0.074   3.659   3.170  0.1231  0.2792 -0.0765
  481EMI    H0F 9133  -0.105   3.700   3.265 -1.8949 -1.8952  0.3111
  481EMI    C0N 9134  -0.162   3.722   3.066  0.5010 -0.6147  0.8845
  481EMI    H0O 9135  -0.129   3.679   2.972 -0.6855 -1.8302  0.9925
  481EMI    H0P 9136  -0.270   3.721   3.074  0.2940 -0.4415 -1.2897
  481EMI    H0Q 9137  -0.141   3.829   3.064 -4.3025  0.6461  3.2030
  481EMI    N02 9138   0.069   3.667   3.123  0.1427 -0.2536 -0.3633
  481EMI    H0E 9139  -0.107   3.556   3.173  2.2261 -0.5253 -1.7898
  482EMI    C01 9140   2.477   0.001   3.157  0.0786  0.1308  0.1808
  482EMI    C04 9141   2.658   0.111   3.202 -0.1355  0.3728  0.0907
  482EMI    C03 9142   2.667   0.052   3.080  0.2202 -0.1908 -0.4646
  482EMI    H07 9143   2.378  -0.038   3.162  0.3901 -0.5452  1.5908
  482EMI    H09 9144   2.729   0.159   3.265 -0.4037 -0.0460  0.7200
  482EMI    H08 9145   2.748   0.055   3.011 -0.1269 -2.7018 -1.0660
  482EMI    C05 9146   2.509  -0.074   2.921 -0.1282 -0.0314 -0.2282
  482EMI    H0B 9147   2.464   0.004   2.861  1.9477  0.5257 -1.1306
  482EMI    H0C 9148   2.595  -0.118   2.873 -0.4952 -2.0480  0.8604
  482EMI    H0D 9149   2.444  -0.160   2.929  0.6248 -0.6481 -0.6533
  482EMI    N00 9150   2.549  -0.009   3.047 -0.0407 -0.1943 -0.0249
  482EMI    C06 9151   2.474   0.090   3.383 -0.5269  0.3142  0.0095
  482EMI    H0F 9152   2.522   0.184   3.409 -0.1340 -0.1815  1.1576
  482EMI    C0N 9153   2.327   0.116   3.384  0.0153 -0.4416 -0.2182
  482EMI    H0O 9154   2.300   0.177   3.470 -0.2282  0.0323 -0.6322
  482EMI    H0P 9155   2.307   0.170   3.293 -0.0874  0.4358  0.3088
  482EMI    H0Q 9156   2.281   0.020   3.404 -0.1211 -0.4580 -0.6197
  482EMI    N02 9157   2.531   0.074   3.248 -0.9012 -0.6498 -0.0761
  482EMI    H0E 9158   2.509   0.009   3.446  0.6854 -0.8899 -2.1195
  483EMI    C01 9159   4.943   1.223   3.460  0.3309  0.5340 -0.3768
  483EMI    C04 9160   4.741   1.160   3.443  0.6751 -0.3307 -0.0521
  483EMI    C03 9161   4.748   1.256   3.537  0.5830 -0.3951  0.5349
  483EMI    H07 9162   5.049   1.229   3.449  0.3914 -0.2783 -0.2500
  483EMI    H09 9163   4.650   1.118   3.405 -1.1019  1.4449  2.0172
  483EMI    H08 9164   4.670   1.306   3.590  0.3620  1.5816 -1.4864
  483EMI    C05 9165   4.926   1.372   3.665 -0.2076  0.4611 -0.2990
  483EMI    H0B 9166   5.016   1.327   3.705 -0.0924  0.3811 -0.6426
  483EMI    H0C 9167   4.950   1.469   3.625  0.3570  1.0293  1.3079
  483EMI    H0D 9168   4.846   1.377   3.737 -0.1467  0.2544 -0.2155
  483EMI    N00 9169   4.882   1.279   3.560 -0.0137  0.1188  0.0696
  483EMI    C06 9170   4.896   1.071   3.263  0.2840  0.2958 -1.2683
  483EMI    H0F 9171   4.855   0.971   3.274  1.8542 -0.0641  2.7854
  483EMI    C0N 9172   4.834   1.133   3.140  0.4398 -0.5332 -0.0443
  483EMI    H0O 9173   4.726   1.121   3.138  0.5016 -1.0997 -0.6505
  483EMI    H0P 9174   4.863   1.237   3.145  1.5586 -0.6647 -2.1367
  483EMI    H0Q 9175   4.872   1.091   3.047 -2.1256  1.8543 -2.3856
  483EMI    N02 9176   4.865   1.144   3.388 -0.0936 -0.1764 -0.1120
  483EMI    H0E 9177   5.003   1.062   3.252  0.3444 -0.1879 -0.4047
  484EMI    C01 9178   3.226   4.751   1.942  0.0959 -0.0351  0.1690
  484EMI    C04 9179   3.396   4.612   1.952 -0.2281  0.1208 -0.4264
  484EMI    C03 9180   3.439   4.726   1.994  0.4610  0.3095  0.4716
  484EMI    H07 9181   3.129   4.793   1.925 -1.0385 -2.2569  0.8228
  484EMI    H09 9182   3.447   4.522   1.925 -0.2103  0.1912 -0.6352
  484EMI    H08 9183   3.542   4.749   2.015 -0.3930  3.6762  1.6802
  484EMI    C05 9184   3.340   4.963   2.002 -0.3831  0.2490 -0.2295
  484EMI    H0B 9185   3.239   4.994   1.979 -0.3404 -0.5614 -1.6732
  484EMI    H0C 9186   3.375   5.005   2.095  2.3423 -0.2631 -0.9498
  484EMI    H0D 9187   3.401   4.990   1.918  1.7292 -0.9636  0.8323
  484EMI    N00 9188   3.332   4.813   1.986  0.1043 -0.3087 -1.2229
  484EMI    C06 9189   3.186   4.525   1.852  1.2232  0.2398 -0.3313
  484EMI    H0F 9190   3.190   4.440   1.917  2.5178  1.0548  0.7083
  484EMI    C0N 9191   3.038   4.570   1.856 -0.0435  0.3121  0.0847
  484EMI    H0O 9192   3.000   4.592   1.954  0.3625  1.4558  0.0052
  484EMI    H0P 9193   3.019   4.651   1.787  1.4831 -1.1169 -2.1927
  484EMI    H0Q 9194   2.984   4.482   1.823  0.1624  0.2613 -0.1216
  484EMI    N02 9195   3.265   4.631   1.902 -0.2392 -0.4082 -0.3997
  484EMI    H0E 9196   3.214   4.489   1.754 -0.8545 -4.5886  0.5851
  485EMI    C01 9197   2.256   3.200   3.985  0.1588 -0.4367  0.7580
  485EMI    C04 9198   2.239   3.049   4.136  0.4070  0.4917  0.9037
  485EMI    C03 9199   2.165   3.004   4.026  0.0783 -0.1881 -0.0303
  485EMI    H07 9200   2.285   3.281   3.922 -0.0208 -0.6940  0.3350
  485EMI    H09 9201   2.245   3.010   4.235 -3.0919  2.9700  2.2498
  485EMI    H08 9202   2.113   2.912   4.011 -0.3893 -0.0593  0.7106
  485EMI    C05 9203   2.128   3.100   3.801 -0.2208  0.0914 -0.7023
  485EMI    H0B 9204   2.045   3.168   3.801  0.1585  0.5680  0.6192
  485EMI    H0C 9205   2.213   3.126   3.739  1.3972 -0.4338  1.1936
  485EMI    H0D 9206   2.092   2.999   3.785 -1.8475  0.5992 -0.4060
  485EMI    N00 9207   2.171   3.107   3.938  0.3918  0.2328  0.2437
  485EMI    C06 9208   2.398   3.224   4.197  0.0663 -0.0175  0.0053
  485EMI    H0F 9209   2.463   3.141   4.219  0.2522  0.2756  0.5743
  485EMI    C0N 9210   2.487   3.328   4.128 -0.3094  0.0391 -0.9832
  485EMI    H0O 9211   2.559   3.360   4.203 -2.3805  0.3526  0.9672
  485EMI    H0P 9212   2.538   3.295   4.038 -1.0127  0.3227 -1.5002
  485EMI    H0Q 9213   2.439   3.421   4.100  1.2232  1.6035  1.2424
  485EMI    N02 9214   2.302   3.167   4.105 -0.4180 -0.1006  0.1575
  485EMI    H0E 9215   2.357   3.254   4.292  0.0050  0.5516 -0.1985
  486EMI    C01 9216   2.598   0.852   2.452 -1.0075  0.0156 -0.5664
  486EMI    C04 9217   2.698   1.041   2.504  0.2408  0.0046 -0.0173
  486EMI    C03 9218   2.758   0.937   2.566 -0.5080 -0.1034  0.3863
  486EMI    H07 9219   2.522   0.788   2.413 -0.2527 -0.5539 -1.1394
  486EMI    H09 9220   2.716   1.146   2.497  0.3541  0.0720  1.1456
  486EMI    H08 9221   2.846   0.927   2.626  0.7114  0.7884 -1.1800
  486EMI    C05 9222   2.741   0.683   2.562 -0.3861  0.0091  0.4958
  486EMI    H0B 9223   2.712   0.668   2.665  0.8268  3.3567  1.4650
  486EMI    H0C 9224   2.687   0.604   2.511 -0.1126 -0.2616  0.6249
  486EMI    H0D 9225   2.847   0.663   2.566 -0.7092 -2.3693 -0.7348
  486EMI    N00 9226   2.697   0.818   2.533  0.4750 -0.2279  0.7460
  486EMI    C06 9227   2.521   1.051   2.328 -0.2799 -0.7939  0.0568
  486EMI    H0F 9228   2.513   0.990   2.240 -0.4159  0.0811 -0.5512
  486EMI    C0N 9229   2.390   1.095   2.376  0.3580  0.8811 -0.2667
  486EMI    H0O 9230   2.320   1.020   2.412  0.4879  2.1347  2.8522
  486EMI    H0P 9231   2.415   1.168   2.452 -2.3234  1.6547  0.0000
  486EMI    H0Q 9232   2.343   1.147   2.292 -1.3771  1.0699  0.7719
  486EMI    N02 9233   2.596   0.983   2.431  0.0734  0.2165  0.6927
  486EMI    H0E 9234   2.573   1.140   2.296 -1.4632 -0.0151  0.2339
  487EMI    C01 9235   1.521   1.078   2.284 -0.3449 -0.1576  0.6966
  487EMI    C04 9236   1.355   1.179   2.381 -0.3728  0.6132  0.0006
  487EMI    C03 9237   1.405   1.255   2.289 -0.1359 -0.4735  0.4574
  487EMI    H07 9238   1.597   1.009   2.256  1.0305  1.3489  0.6006
  487EMI    H09 9239   1.287   1.203   2.460 -0.0522  0.1940  0.4113
  487EMI    H08 9240   1.394   1.360   2.272 -1.2958 -0.3873  1.5907
  487EMI    C05 9241   1.551   1.230   2.077  0.3438 -0.1350  0.1416
  487EMI    H0B 9242   1.641   1.173   2.057  1.3422  1.2701  0.4491
  487EMI    H0C 9243   1.473   1.212   2.005 -0.4099  0.1799  0.8710
  487EMI    H0D 9244   1.562   1.337   2.077 -1.1465  0.0929  2.5543
  487EMI    N00 9245   1.490   1.186   2.205  0.0571 -0.2482  0.2091
  487EMI    C06 9246   1.444   0.953   2.490  0.0103  0.4933 -0.0918
  487EMI    H0F 9247   1.362   0.973   2.557  0.2633  0.4653  0.2277
  487EMI    C0N 9248   1.438   0.820   2.416 -0.4273  0.3793 -0.1429
  487EMI    H0O 9249   1.506   0.801   2.333 -0.2608 -1.5589  0.3779
  487EMI    H0P 9250   1.450   0.737   2.485  0.6676  0.5191 -0.1430
  487EMI    H0Q 9251   1.338   0.822   2.375  0.1867  0.5562 -1.7044
  487EMI    N02 9252   1.442   1.065   2.389  0.2464  0.1146 -0.1977
  487EMI    H0E 9253   1.532   0.958   2.552  0.5251 -1.9306 -0.5152
  488EMI    C01 9254   4.223   3.494   3.105  0.7044 -0.0846  0.7580
  488EMI    C04 9255   4.128   3.310   3.160 -0.1543 -0.1903 -0.2948
  488EMI    C03 9256   4.038   3.395   3.115 -0.2750  0.0676  0.1800
  488EMI    H07 9257   4.294   3.573   3.094  1.3103 -0.5478  1.2719
  488EMI    H09 9258   4.119   3.218   3.214 -2.2162 -0.7518 -1.5072
  488EMI    H08 9259   3.931   3.396   3.113 -0.2920  2.2139  0.2041
  488EMI    C05 9260   4.040   3.605   2.981  0.2766  0.2937  0.2224
  488EMI    H0B 9261   3.934   3.613   2.995  0.4304 -1.0707  2.9249
  488EMI    H0C 9262   4.075   3.697   3.024  0.8114  0.3576 -0.3411
  488EMI    H0D 9263   4.069   3.602   2.877  1.1099 -1.4613  0.4587
  488EMI    N00 9264   4.101   3.499   3.057  0.2480  0.1928  0.4827
  488EMI    C06 9265   4.364   3.356   3.253  0.0232  0.4984  0.2145
  488EMI    H0F 9266   4.393   3.441   3.313 -0.7291 -0.0544  1.3972
  488EMI    C0N 9267   4.333   3.262   3.364 -0.7023  0.2703  0.6455
  488EMI    H0O 9268   4.413   3.253   3.435 -1.4114 -0.8928  1.3246
  488EMI    H0P 9269   4.246   3.304   3.413 -0.3792  1.7068  0.0411
  488EMI    H0Q 9270   4.323   3.163   3.322  2.7881  0.7709 -1.7943
  488EMI    N02 9271   4.249   3.377   3.157  0.1249  0.2841 -0.7796
  488EMI    H0E 9272   4.446   3.316   3.196 -0.1527  0.5111 -0.0523
  489EMI    C01 9273   2.080   1.082   4.632  0.5800 -0.5516 -0.2516
  489EMI    C04 9274   2.209   0.948   4.737  0.4660  0.1021  0.5963
  489EMI    C03 9275   2.113   0.991   4.819  0.0799  0.5823 -0.5985
  489EMI    H07 9276   2.039   1.139   4.551 -0.9565 -0.2271  0.7194
  489EMI    H09 9277   2.287   0.884   4.772 -1.2557 -1.6834  1.3152
  489EMI    H08 9278   2.099   0.953   4.918  0.5021 -1.3489 -1.2360
  489EMI    C05 9279   1.917   1.143   4.798  0.5886  0.5092  0.1285
  489EMI    H0B 9280   1.861   1.082   4.868 -0.0521  2.8805  1.7986
  489EMI    H0C 9281   1.935   1.238   4.845 -2.9757  0.3620  2.1594
  489EMI    H0D 9282   1.848   1.154   4.717  1.8093  0.3429 -0.9734
  489EMI    N00 9283   2.029   1.069   4.752 -0.1042 -0.6217 -0.1917
  489EMI    C06 9284   2.280   0.995   4.496  0.5329 -0.4381 -0.4412
  489EMI    H0F 9285   2.282   0.894   4.459  0.2423 -0.3246 -0.7743
  489EMI    C0N 9286   2.234   1.093   4.387 -0.8005  0.2253 -0.7021
  489EMI    H0O 9287   2.313   1.091   4.313 -0.0612 -1.5176  0.0799
  489EMI    H0P 9288   2.143   1.057   4.340 -0.6380  1.0441 -1.6787
  489EMI    H0Q 9289   2.229   1.191   4.432 -1.9619 -0.4114  0.6475
  489EMI    N02 9290   2.187   1.008   4.614  0.3540  0.4799 -0.0346
  489EMI    H0E 9291   2.376   1.028   4.533  0.2297 -0.5645  0.4768
  490EMI    C01 9292   1.311   4.475   3.793  0.2752 -0.1074  0.2775
  490EMI    C04 9293   1.273   4.678   3.831 -0.1094  0.0606  0.2094
  490EMI    C03 9294   1.404   4.662   3.823  0.1496 -0.1126 -0.1433
  490EMI    H07 9295   1.297   4.370   3.784  2.1641 -0.4541  0.9740
  490EMI    H09 9296   1.214   4.765   3.849 -0.4319 -0.4554  1.7332
  490EMI    H08 9297   1.485   4.731   3.831  1.1449 -1.2080 -0.5261
  490EMI    C05 9298   1.564   4.474   3.792  0.5942  0.0616 -0.2238
  490EMI    H0B 9299   1.543   4.394   3.723  0.0622  0.2779 -0.3151
  490EMI    H0C 9300   1.627   4.539   3.733  2.7914 -1.1632  0.6427
  490EMI    H0D 9301   1.615   4.439   3.881  1.1081 -1.5836 -1.1273
  490EMI    N00 9302   1.427   4.530   3.806 -0.0223 -0.2561  0.0565
  490EMI    C06 9303   1.062   4.538   3.803  0.1089  0.1219  0.7069
  490EMI    H0F 9304   1.032   4.541   3.700 -0.6141  0.1818  0.9077
  490EMI    C0N 9305   1.036   4.401   3.869  0.5786 -0.7665  0.5472
  490EMI    H0O 9306   0.931   4.374   3.874  0.1150  0.3557 -1.7254
  490EMI    H0P 9307   1.104   4.319   3.849  1.5666  0.2542 -0.4382
  490EMI    H0Q 9308   1.040   4.427   3.975 -0.5675 -0.2482  0.4769
  490EMI    N02 9309   1.211   4.558   3.809 -0.0104  0.1089 -0.1225
  490EMI    H0E 9310   1.018   4.624   3.853  3.4169  1.4610  1.5624
  491EMI    C01 9311   0.808   0.781   2.067  0.3539 -0.0574  0.9866
  491EMI    C04 9312   1.011   0.821   2.119  0.0235  0.4005 -0.2377
  491EMI    C03 9313   1.013   0.792   1.991 -0.1834  0.1923 -0.1223
  491EMI    H07 9314   0.702   0.770   2.073  0.3385  0.2073  1.2491
  491EMI    H09 9315   1.094   0.844   2.181 -1.1047  2.7020  0.5342
  491EMI    H08 9316   1.094   0.785   1.922 -0.2647  2.8756 -0.5865
  491EMI    C05 9317   0.842   0.763   1.817 -0.6446 -0.1798  0.4682
  491EMI    H0B 9318   0.781   0.845   1.783 -3.0744 -1.2643  1.9416
  491EMI    H0C 9319   0.924   0.743   1.750 -1.9267 -0.8314 -0.9539
  491EMI    H0D 9320   0.780   0.674   1.818 -0.7083 -0.1324  1.1441
  491EMI    N00 9321   0.883   0.769   1.956  0.3360  0.1500 -0.3672
  491EMI    C06 9322   0.837   0.792   2.304 -0.3024  0.3582 -0.0242
  491EMI    H0F 9323   0.834   0.893   2.341 -3.2538  0.3197  0.1029
  491EMI    C0N 9324   0.689   0.743   2.324  0.3388  0.0332 -0.4087
  491EMI    H0O 9325   0.685   0.650   2.268  0.2610 -0.6343  0.6848
  491EMI    H0P 9326   0.656   0.733   2.427 -4.1766 -3.7620 -1.8425
  491EMI    H0Q 9327   0.617   0.816   2.290 -1.5462 -1.0957  0.9798
  491EMI    N02 9328   0.887   0.791   2.171 -0.0810  0.3470  0.4526
  491EMI    H0E 9329   0.902   0.732   2.367 -1.5721  0.4909  1.4875
  492EMI    C01 9330   1.640   0.918   4.183  0.0514  0.0834 -0.8255
  492EMI    C04 9331   1.680   1.132   4.132  0.4510 -0.3686  0.0970
  492EMI    C03 9332   1.697   1.053   4.024  0.3429 -0.6927  0.1807
  492EMI    H07 9333   1.631   0.829   4.241  0.7328  1.3617  1.3818
  492EMI    H09 9334   1.694   1.236   4.154 -0.9893 -0.1890  0.2211
  492EMI    H08 9335   1.736   1.083   3.929  2.6038  1.0450  1.5579
  492EMI    C05 9336   1.701   0.809   3.970  0.4763 -0.3234 -0.5065
  492EMI    H0B 9337   1.612   0.776   3.918  1.3246 -1.5759 -1.2231
  492EMI    H0C 9338   1.775   0.839   3.898  1.5676  1.1565  1.1479
  492EMI    H0D 9339   1.753   0.735   4.030  0.9966  1.5404  1.4807
  492EMI    N00 9340   1.677   0.923   4.061  0.0702 -0.0967  0.2631
  492EMI    C06 9341   1.609   1.074   4.368 -0.0007 -0.2424  0.6361
  492EMI    H0F 9342   1.599   0.977   4.414 -3.7418  0.0161  0.6230
  492EMI    C0N 9343   1.711   1.162   4.429  0.1478 -0.2210 -0.8013
  492EMI    H0O 9344   1.730   1.254   4.375  2.0269  0.2128  0.4812
  492EMI    H0P 9345   1.683   1.198   4.528 -0.2534 -0.3405 -0.8712
  492EMI    H0Q 9346   1.810   1.117   4.437  0.4813 -0.0586 -3.2560
  492EMI    N02 9347   1.636   1.040   4.227 -0.2788 -0.9190  0.2245
  492EMI    H0E 9348   1.510   1.115   4.375  0.9430  2.4247 -0.2384
  493EMI    C01 9349   0.775   1.496   1.716 -0.4718 -0.1921 -0.2008
  493EMI    C04 9350   0.703   1.313   1.623 -0.0678  0.2278 -0.1211
  493EMI    C03 9351   0.803   1.360   1.552 -0.1400 -0.3685 -0.2425
  493EMI    H07 9352   0.793   1.575   1.786  0.6244 -0.1840 -0.4780
  493EMI    H09 9353   0.642   1.226   1.612  1.3819 -1.4139  3.5434
  493EMI    H08 9354   0.841   1.316   1.463 -1.4329 -0.1637 -0.9268
  493EMI    C05 9355   0.948   1.571   1.549 -0.8315  0.6596  1.0032
  493EMI    H0B 9356   0.925   1.591   1.445 -0.1979 -3.1477 -0.0060
  493EMI    H0C 9357   0.962   1.662   1.605 -0.5575  2.0007 -1.1028
  493EMI    H0D 9358   1.039   1.513   1.545 -0.3837  1.2825  1.7598
  493EMI    N00 9359   0.849   1.479   1.607  0.2143  0.0676 -0.0835
  493EMI    C06 9360   0.562   1.399   1.824 -0.4870 -0.1112 -0.5622
  493EMI    H0F 9361   0.563   1.492   1.878 -0.7616  0.7742 -2.0249
  493EMI    C0N 9362   0.434   1.377   1.745  0.2099 -0.3084  0.4680
  493EMI    H0O 9363   0.431   1.284   1.689  0.0233 -0.4361  0.6833
  493EMI    H0P 9364   0.343   1.377   1.804 -0.5171 -0.8721 -0.6168
  493EMI    H0Q 9365   0.429   1.456   1.672 -0.0211  1.1650  2.0166
  493EMI    N02 9366   0.681   1.405   1.726  0.0807  0.3816 -0.0465
  493EMI    H0E 9367   0.574   1.311   1.886 -2.2270 -0.0646 -0.1081
  494EMI    C01 9368   2.377   4.689   3.199  0.5089  0.2640 -0.2188
  494EMI    C04 9369   2.375   4.608   3.003 -0.1206 -1.0696  0.5955
  494EMI    C03 9370   2.500   4.651   3.027 -0.8297  0.3425  0.6334
  494EMI    H07 9371   2.350   4.731   3.294 -1.4490  0.3872 -0.7992
  494EMI    H09 9372   2.333   4.563   2.915  1.1973 -2.5061  0.6593
  494EMI    H08 9373   2.586   4.653   2.964 -0.9577  1.4472  0.4747
  494EMI    C05 9374   2.615   4.729   3.244 -0.0387 -0.1442 -0.4935
  494EMI    H0B 9375   2.677   4.784   3.174  2.0639 -2.8253 -0.9131
  494EMI    H0C 9376   2.596   4.792   3.330  1.0695  0.7670 -0.8880
  494EMI    H0D 9377   2.672   4.639   3.261  1.6183  0.5102 -2.1325
  494EMI    N00 9378   2.502   4.688   3.159 -0.5877 -0.0996 -0.3668
  494EMI    C06 9379   2.149   4.620   3.110 -0.1222 -0.0572 -0.4430
  494EMI    H0F 9380   2.105   4.719   3.101 -0.2228 -0.0735 -0.1669
  494EMI    C0N 9381   2.077   4.522   3.021  0.5065  0.2263 -0.6263
  494EMI    H0O 9382   1.973   4.526   3.052  0.2233 -2.7699 -0.8845
  494EMI    H0P 9383   2.080   4.555   2.918  1.5901  0.9931 -0.3677
  494EMI    H0Q 9384   2.114   4.421   3.033  0.4786  0.4374  1.7416
  494EMI    N02 9385   2.301   4.639   3.106  0.2745 -0.0056 -0.2721
  494EMI    H0E 9386   2.124   4.581   3.208  0.1646 -1.7951 -1.0335
  495EMI    C01 9387   1.218   3.761   3.895  0.1450  0.4266  0.1607
  495EMI    C04 9388   1.164   3.651   3.714  0.2289  0.0201 -0.2311
  495EMI    C03 9389   1.054   3.657   3.793 -0.2557  0.3730 -0.2880
  495EMI    H07 9390   1.277   3.824   3.958 -0.1783  0.0909  0.8059
  495EMI    H09 9391   1.183   3.591   3.628  1.9964  0.0403  0.0976
  495EMI    H08 9392   0.959   3.608   3.793  0.9760 -2.1467 -0.3012
  495EMI    C05 9393   1.006   3.769   4.024  0.2155  0.0071  0.0467
  495EMI    H0B 9394   0.993   3.691   4.098 -0.9274  3.3371  3.6459
  495EMI    H0C 9395   1.052   3.857   4.065  0.9843 -0.0221 -0.7238
  495EMI    H0D 9396   0.908   3.801   3.990 -0.1644 -1.5779 -0.4455
  495EMI    N00 9397   1.090   3.728   3.907 -0.2059 -0.2841 -0.3079
  495EMI    C06 9398   1.405   3.720   3.725  0.9163  0.2362 -0.0514
  495EMI    H0F 9399   1.397   3.738   3.619  1.3921  0.4774 -0.0484
  495EMI    C0N 9400   1.503   3.820   3.785 -0.1651 -0.1059  0.1039
  495EMI    H0O 9401   1.526   3.802   3.889 -1.4964 -0.5576  0.3341
  495EMI    H0P 9402   1.597   3.809   3.731 -0.3904 -2.9122  0.1360
  495EMI    H0Q 9403   1.460   3.919   3.791  0.8760  0.3733 -0.0965
  495EMI    N02 9404   1.266   3.714   3.781  0.1212  0.6709  0.0483
  495EMI    H0E 9405   1.432   3.617   3.743 -0.6577  0.0051  1.1894
  496EMI    C01 9406   0.521   3.006   3.210 -0.5443  0.4333 -0.2899
  496EMI    C04 9407   0.546   2.840   3.063  0.1838  0.0662 -0.2828
  496EMI    C03 9408   0.554   2.963   2.998 -0.1432  1.0101 -0.3042
  496EMI    H07 9409   0.492   3.050   3.303 -1.2377  0.3428 -0.4637
  496EMI    H09 9410   0.563   2.737   3.041  1.5663  0.0588  0.7244
  496EMI    H08 9411   0.567   2.971   2.892  1.9368  0.6990 -0.1141
  496EMI    C05 9412   0.533   3.200   3.072  0.5922 -0.2676 -0.2411
  496EMI    H0B 9413   0.432   3.226   3.045  0.2811  0.2721  1.3764
  496EMI    H0C 9414   0.554   3.257   3.161 -0.4129  0.6074 -0.5397
  496EMI    H0D 9415   0.589   3.219   2.981  1.6046 -1.0848  0.1945
  496EMI    N00 9416   0.530   3.063   3.092  0.7010  0.0311 -0.6276
  496EMI    C06 9417   0.509   2.780   3.306 -0.3167 -0.1994  0.0728
  496EMI    H0F 9418   0.417   2.725   3.297  0.2000 -0.8041 -2.2720
  496EMI    C0N 9419   0.619   2.671   3.312 -0.4474 -0.5303  0.0972
  496EMI    H0O 9420   0.589   2.598   3.386  1.5126  0.1474  1.6456
  496EMI    H0P 9421   0.617   2.618   3.217  0.6430  0.5100 -0.5346
  496EMI    H0Q 9422   0.719   2.699   3.342 -0.9396 -0.0255  1.3389
  496EMI    N02 9423   0.532   2.873   3.199  0.1882 -0.7214  0.0660
  496EMI    H0E 9424   0.512   2.845   3.392  0.4480  2.1915 -1.6488
  497EMI    C01 9425   3.931   4.688   2.095 -0.3591 -0.2430  0.8974
  497EMI    C04 9426   4.064   4.638   1.931 -0.0608  0.5933  0.6145
  497EMI    C03 9427   4.110   4.760   1.967 -0.8034  0.0932 -0.5272
  497EMI    H07 9428   3.849   4.686   2.163  0.2687 -0.5442  1.6572
  497EMI    H09 9429   4.100   4.574   1.853  0.0948  1.8915 -0.4151
  497EMI    H08 9430   4.195   4.808   1.924  1.4695 -2.7962  0.3878
  497EMI    C05 9431   4.016   4.915   2.152  0.2922  0.0288 -0.4115
  497EMI    H0B 9432   4.005   5.006   2.096  0.7894 -1.2805 -2.7664
  497EMI    H0C 9433   3.930   4.904   2.216  0.0297 -1.1706 -0.9533
  497EMI    H0D 9434   4.101   4.922   2.219 -0.1066 -1.6170  0.3192
  497EMI    N00 9435   4.021   4.788   2.072 -0.5458 -0.2333 -0.3918
  497EMI    C06 9436   3.860   4.494   1.976  0.1460  0.0694 -0.2353
  497EMI    H0F 9437   3.805   4.501   1.884 -0.1657  0.1538 -0.0472
  497EMI    C0N 9438   3.948   4.370   1.963  0.5673  0.1793  0.6889
  497EMI    H0O 9439   3.898   4.308   1.889  1.1957 -0.8015  1.0785
  497EMI    H0P 9440   4.049   4.377   1.926 -0.1508  0.2851 -1.3808
  497EMI    H0Q 9441   3.930   4.305   2.048  1.7348 -0.5196  0.4222
  497EMI    N02 9442   3.948   4.607   1.993  1.3374  0.2053 -0.3541
  497EMI    H0E 9443   3.789   4.472   2.055  0.5069 -1.4404 -0.3038
  498EMI    C01 9444   2.899   2.104   3.615  0.1199 -0.4540  0.7171
  498EMI    C04 9445   2.725   2.111   3.480 -0.8134  0.0767 -0.7197
  498EMI    C03 9446   2.755   2.239   3.512  0.2654  0.7702  0.3272
  498EMI    H07 9447   2.968   2.058   3.684  0.2267 -1.6117 -0.1269
  498EMI    H09 9448   2.661   2.063   3.409 -1.9183  0.0129  0.2817
  498EMI    H08 9449   2.710   2.329   3.476 -1.0930  0.0518  0.1855
  498EMI    C05 9450   2.946   2.346   3.644  0.3230 -0.1423  0.4273
  498EMI    H0B 9451   2.895   2.374   3.735  1.9728  0.3573  1.2322
  498EMI    H0C 9452   3.042   2.301   3.663  0.3091 -0.9325 -1.1539
  498EMI    H0D 9453   2.962   2.424   3.571  1.2058 -1.3206 -0.6956
  498EMI    N00 9454   2.870   2.231   3.595  0.6002  0.3348  0.1310
  498EMI    C06 9455   2.813   1.883   3.540 -0.5380 -0.2148  0.1660
  498EMI    H0F 9456   2.913   1.844   3.552 -0.6124 -0.5766 -0.3579
  498EMI    C0N 9457   2.730   1.817   3.652 -0.4262  0.4123  0.7056
  498EMI    H0O 9458   2.625   1.837   3.630  0.4594  3.0551 -1.7658
  498EMI    H0P 9459   2.739   1.710   3.637 -2.6320  0.2944 -0.1814
  498EMI    H0Q 9460   2.764   1.841   3.752 -0.5289 -0.1037  0.8642
  498EMI    N02 9461   2.813   2.028   3.547 -0.2393  0.8751  0.2223
  498EMI    H0E 9462   2.797   1.851   3.439  2.1130 -0.3453 -0.2819
  499EMI    C01 9463   0.922   1.975   4.760 -0.6544  0.2334  0.2699
  499EMI    C04 9464   0.904   1.969   4.975  0.4607 -0.4788 -0.0055
  499EMI    C03 9465   0.808   1.889   4.923 -0.3562  0.1796 -0.1636
  499EMI    H07 9466   0.960   2.003   4.664  1.1353  0.0788  0.8949
  499EMI    H09 9467   0.921   1.998   5.077  0.5346 -0.9935  0.1339
  499EMI    H08 9468   0.735   1.827   4.971 -0.4238  2.4833  3.0347
  499EMI    C05 9469   0.727   1.840   4.688  0.6705 -0.2639  0.3146
  499EMI    H0B 9470   0.713   1.733   4.683  1.7251 -0.3709 -2.4681
  499EMI    H0C 9471   0.634   1.890   4.705  1.1718 -0.1470  3.0564
  499EMI    H0D 9472   0.756   1.864   4.587 -0.4128 -1.0146 -0.1994
  499EMI    N00 9473   0.820   1.894   4.785  0.1074  0.0183 -0.2196
  499EMI    C06 9474   1.092   2.113   4.884  0.8724 -0.1748  0.2148
  499EMI    H0F 9475   1.067   2.218   4.897  0.9672 -0.2400  0.9324
  499EMI    C0N 9476   1.190   2.074   4.992 -0.4310 -0.6153 -0.5281
  499EMI    H0O 9477   1.267   2.149   5.003  1.4523 -2.6647  1.1312
  499EMI    H0P 9478   1.133   2.074   5.084 -0.7498  0.6634 -0.7104
  499EMI    H0Q 9479   1.231   1.977   4.967  0.4476 -0.0064 -1.5333
  499EMI    N02 9480   0.972   2.026   4.871  0.5526 -0.5473  0.1930
  499EMI    H0E 9481   1.139   2.105   4.787  1.4258  1.8124  0.2695
  500EMI    C01 9482   4.130   4.539   2.504  0.0623 -0.2849  0.2639
  500EMI    C04 9483   4.047   4.417   2.338 -0.5139  0.4216 -0.2107
  500EMI    C03 9484   4.130   4.502   2.282  0.3113 -0.7713 -0.1192
  500EMI    H07 9485   4.144   4.583   2.600 -0.8388  0.1437  0.2071
  500EMI    H09 9486   3.986   4.345   2.290 -1.3696  2.1391 -1.8432
  500EMI    H08 9487   4.156   4.510   2.179 -0.2740 -0.8676 -0.2728
  500EMI    C05 9488   4.284   4.691   2.379  0.2671  0.4267 -0.7270
  500EMI    H0B 9489   4.304   4.705   2.274 -1.5467  0.0894 -1.1642
  500EMI    H0C 9490   4.243   4.775   2.433  2.9896  0.6037  1.2460
  500EMI    H0D 9491   4.364   4.651   2.439  0.1809  0.0056 -0.8905
  500EMI    N00 9492   4.187   4.581   2.389  0.4010  0.0312  0.4577
  500EMI    C06 9493   3.942   4.386   2.563 -0.3990 -0.0655  0.3821
  500EMI    H0F 9494   3.987   4.293   2.594  0.8656  1.2317  2.7328
  500EMI    C0N 9495   3.908   4.468   2.682  0.0247 -0.1863 -0.7126
  500EMI    H0O 9496   3.895   4.566   2.639 -0.2844  0.0337 -0.1275
  500EMI    H0P 9497   3.820   4.437   2.737 -0.5970  2.5393 -0.0341
  500EMI    H0Q 9498   3.988   4.478   2.754 -0.8206 -3.4433  0.9074
  500EMI    N02 9499   4.039   4.451   2.473 -0.0271  0.1364 -0.3435
  500EMI    H0E 9500   3.857   4.375   2.497 -1.1718 -2.3449  1.6417
  501BF       B 9501   0.739   3.457   3.916 -0.4231  0.1283  0.0890
  501BF       F 9502   0.720   3.320   3.939  0.2849  0.0190  0.0633
  501BF       F 9503   0.848   3.503   3.987 -0.3011 -0.1914  0.4944
  501BF       F 9504   0.747   3.487   3.782  0.4698  0.1486 -0.1914
  501BF       F 9505   0.635   3.529   3.975 -0.1535 -0.6753 -0.2372
  502BF       B 9506   4.828   0.834   0.287 -0.0903  0.5222  0.2923
  502BF       F 9507   4.917   0.836   0.181  0.8670 -0.1822  0.3260
  502BF       F 9508   4.706   0.833   0.226  0.0687 -0.1918 -0.0564
  502BF       F 9509   4.842   0.720   0.366  0.8605 -0.4740  0.1560
  502BF       F 9510   4.839   0.953   0.359  0.3626 -0.0511 -0.3851
  503BF       B 9511   0.068   2.386   0.452  0.5135 -0.0748 -0.0615
  503BF       F 9512   0.113   2.273   0.518 -0.2309 -0.5859 -0.3581
  503BF       F 9513   0.036   2.353   0.318  0.3050 -0.4408 -0.3094
  503BF       F 9514  -0.043   2.445   0.518 -0.2642 -0.1539  0.2801
  503BF       F 9515   0.177   2.478   0.448  0.2060 -0.1101 -0.0762
  504BF       B 9516   1.350   1.847   4.753  1.0715  0.2668 -0.6197
  504BF       F 9517   1.384   1.982   4.761  0.0122  0.2073 -0.0033
  504BF       F 9518   1.213   1.828   4.788  0.2037 -0.5487  0.3166
  504BF       F 9519   1.365   1.795   4.620  0.2021 -0.1992 -0.2685
  504BF       F 9520   1.425   1.771   4.844  0.4701 -0.1548  0.0839
  505BF       B 9521   1.327   3.288   3.667 -0.0868 -0.5317 -0.5483
  505BF       F 9522   1.231   3.335   3.582  0.5389 -0.1299  0.1516
  505BF       F 9523   1.423   3.215   3.598 -0.0401  0.0736 -0.3363
  505BF       F 9524   1.388   3.395   3.734  0.5558  0.3087  0.3848
  505BF       F 9525   1.269   3.194   3.755  0.3532  0.6519 -0.3678
  506BF       B 9526   3.054   2.795   1.927  0.2832 -0.1940  0.1512
  506BF       F 9527   3.130   2.712   1.855 -0.5038  0.0904 -0.5365
  506BF       F 9528   3.129   2.904   1.975  0.1249 -0.2781 -0.2282
  506BF       F 9529   2.955   2.845   1.843 -0.3764  0.1754  0.0265
  506BF       F 9530   2.998   2.727   2.034 -0.1224 -0.5180 -0.0356
  507BF       B 9531   3.713   1.059   3.499  0.3689 -0.0028 -0.3704
  507BF       F 9532   3.575   1.024   3.476  0.3426 -0.5815  0.3240
  507BF       F 9533   3.724   1.082   3.639 -0.3321 -0.4732  0.5697
  507BF       F 9534   3.787   0.955   3.445  0.4938 -0.0171 -0.2039
  507BF       F 9535   3.745   1.180   3.439  0.5425  0.1038  0.5129
  508BF       B 9536   2.889   3.250   4.963 -0.3546 -0.7652 -0.9560
  508BF       F 9537   2.957   3.151   4.904 -0.1616  0.2083 -0.0302
  508BF       F 9538   2.804   3.189   5.057 -0.0540  0.3287 -0.2862
  508BF       F 9539   2.975   3.332   5.041  0.2353  0.2711 -0.3558
  508BF       F 9540   2.817   3.321   4.869  0.0136  0.4181 -0.2943
  509BF       B 9541   1.139   1.477   1.928 -0.6564 -0.2879  0.4661
  509BF       F 9542   1.253   1.432   1.999  0.6149  0.4989  0.0161
  509BF       F 9543   1.024   1.434   1.991  0.0283 -0.0546 -0.5339
  509BF       F 9544   1.123   1.617   1.920 -0.1907 -0.1483 -0.3108
  509BF       F 9545   1.135   1.440   1.798 -0.1337  0.0789 -0.1012
  510BF       B 9546   2.616   2.446   2.808 -0.4807 -0.2536 -0.4936
  510BF       F 9547   2.549   2.501   2.699  0.3748  0.3356 -0.1461
  510BF       F 9548   2.634   2.307   2.802 -0.0689  0.3100 -0.6008
  510BF       F 9549   2.746   2.492   2.802 -0.4273 -0.3275 -0.6826
  510BF       F 9550   2.561   2.480   2.931 -0.1217  0.2542 -0.1295
  511BF       B 9551   1.841   2.452   4.627  0.6761 -0.3287  0.8275
  511BF       F 9552   1.871   2.483   4.760  0.6544  0.0006 -0.2688
  511BF       F 9553   1.738   2.537   4.586  0.4597  0.3895  0.1057
  511BF       F 9554   1.947   2.478   4.545  0.1888  0.5593 -0.4622
  511BF       F 9555   1.796   2.318   4.623  0.0410  0.2067  0.2964
  512BF       B 9556   1.488   0.261   4.795  0.6896 -0.0913  0.8198
  512BF       F 9557   1.614   0.308   4.744 -0.1435  0.1060  0.7111
  512BF       F 9558   1.494   0.139   4.858  0.5948  0.2231  0.5946
  512BF       F 9559   1.428   0.359   4.880 -0.4522 -0.0547  0.1593
  512BF       F 9560   1.410   0.242   4.682 -0.2362 -0.0709  0.8327
  513BF       B 9561   3.322   2.213   4.370 -0.2775  0.0378  0.2511
  513BF       F 9562   3.437   2.292   4.362  0.2003  0.2573  0.0994
  513BF       F 9563   3.215   2.281   4.415 -0.1114  0.5430  0.3577
  513BF       F 9564   3.300   2.157   4.246 -0.2028 -0.1630 -0.3205
  513BF       F 9565   3.343   2.108   4.456 -0.4447  0.0029  0.1555
  514BF       B 9566   2.515   4.036   3.722  0.4352  0.5472  0.0649
  514BF       F 9567   2.638   4.076   3.670  0.1909  0.3094  0.5778
  514BF       F 9568   2.459   4.136   3.803 -0.0681 -0.3331  0.4659
  514BF       F 9569   2.428   4.012   3.615 -0.4494  0.1116 -0.4660
  514BF       F 9570   2.530   3.916   3.800 -0.0068 -0.1108  0.2656
  515BF       B 9571   0.859   2.249   0.775  0.1421  0.4035 -0.4760
  515BF       F 9572   0.805   2.130   0.725 -0.7690 -0.1241 -0.2782
  515BF       F 9573   0.782   2.290   0.888  0.1458  0.5981  0.0300
  515BF       F 9574   0.996   2.227   0.812  0.0708  0.2647 -0.5954
  515BF       F 9575   0.854   2.337   0.677  0.0489  0.0302 -0.0427
  516BF       B 9576   2.247   0.771   0.031 -0.0165  0.4429 -0.2704
  516BF       F 9577   2.294   0.679   0.124 -0.1382  0.1164  0.5192
  516BF       F 9578   2.333   0.885   0.024  0.6524  0.7169  0.0844
  516BF       F 9579   2.221   0.717  -0.092 -0.2733  0.3145 -0.5114
  516BF       F 9580   2.125   0.818   0.071 -0.2130  0.0018 -0.0058
  517BF       B 9581   3.598   0.921   1.703 -0.0611  0.5973  0.6459
  517BF       F 9582   3.665   0.898   1.820  0.0810 -0.0419 -0.0041
  517BF       F 9583   3.539   0.804   1.653 -0.0865  0.1054 -0.2895
  517BF       F 9584   3.500   1.009   1.734 -0.1538 -0.0695 -0.2280
  517BF       F 9585   3.687   0.981   1.614 -0.1386  0.2831  0.1796
  518BF       B 9586   1.938   1.128   3.704 -0.4482 -0.3290 -0.0934
  518BF       F 9587   2.072   1.110   3.742 -0.2408 -0.2353  1.0485
  518BF       F 9588   1.865   1.015   3.699  0.0061  0.1695 -0.3816
  518BF       F 9589   1.877   1.207   3.796  0.0570 -0.2369 -0.4224
  518BF       F 9590   1.914   1.194   3.588 -0.3127 -0.0086  0.2672
  519BF       B 9591   0.371   2.297   3.913 -0.1985 -0.1806  0.2911
  519BF       F 9592   0.238   2.252   3.914 -0.0608  0.5310  0.3655
  519BF       F 9593   0.396   2.363   3.787 -0.2101 -0.5156 -0.0570
  519BF       F 9594   0.388   2.374   4.028 -0.1421  0.1606  0.2402
  519BF       F 9595   0.461   2.191   3.925 -0.0973  0.5480 -0.2076
  520BF       B 9596   0.456   2.337   1.876 -0.4185  0.4953  0.1767
  520BF       F 9597   0.454   2.359   2.009 -0.1335 -0.5773 -0.4363
  520BF       F 9598   0.577   2.268   1.846 -0.2790 -0.2119 -0.7244
  520BF       F 9599   0.357   2.243   1.843  0.4284  0.3504 -0.0802
  520BF       F 9600   0.450   2.456   1.800  0.0298  0.3121 -0.9001
  521BF       B 9601   3.332   3.196   0.776  0.3749  0.6317  0.3861
  521BF       F 9602   3.459   3.236   0.734  0.3179  0.2057 -0.0041
  521BF       F 9603   3.242   3.274   0.706 -0.1070  0.5401  0.4243
  521BF       F 9604   3.312   3.067   0.728  0.0025  0.3786  0.0101
  521BF       F 9605   3.321   3.202   0.912  0.6810  0.6427  0.4288
  522BF       B 9606   0.157   4.229   0.809  0.3097 -0.7806 -0.6466
  522BF       F 9607   0.140   4.097   0.766  0.2702 -0.2492 -0.0285
  522BF       F 9608   0.291   4.269   0.832 -0.7995  0.4622  0.2573
  522BF       F 9609   0.108   4.305   0.706  0.1017  0.5538 -0.0275
  522BF       F 9610   0.082   4.251   0.923  0.5499  0.2329  0.1488
  523BF       B 9611   3.688   0.696   4.512 -0.2242 -0.3458 -0.4217
  523BF       F 9612   3.739   0.704   4.641  0.1329 -0.5130 -0.4239
  523BF       F 9613   3.706   0.569   4.457 -0.2664 -0.0454 -0.4485
  523BF       F 9614   3.549   0.712   4.520 -0.4236 -0.2483  0.2021
  523BF       F 9615   3.753   0.795   4.434 -0.1089 -0.0287  0.5494
  524BF       B 9616   0.493   3.997   3.111  0.1671 -0.3642  0.5270
  524BF       F 9617   0.389   4.066   3.174  0.2107 -0.2658  0.0602
  524BF       F 9618   0.622   4.058   3.129 -0.0182 -0.0833  0.4101
  524BF       F 9619   0.516   3.867   3.160  0.0259  0.9033  0.2232
  524BF       F 9620   0.464   3.993   2.969 -0.1895 -0.0292 -0.1615
  525BF       B 9621   2.273   3.369   1.625 -0.3085  0.3715  0.3650
  525BF       F 9622   2.322   3.327   1.745  0.0800 -0.4810  0.1143
  525BF       F 9623   2.274   3.507   1.618 -0.4455  0.0490  0.3430
  525BF       F 9624   2.352   3.326   1.515 -0.4793  0.1692 -0.3201
  525BF       F 9625   2.141   3.334   1.599 -0.1219  0.2138  0.0517
  526BF       B 9626   1.852   4.259   2.769  0.2757  0.3021  0.1407
  526BF       F 9627   1.958   4.308   2.693  0.0706 -0.6049 -0.2507
  526BF       F 9628   1.876   4.121   2.791 -0.1131 -0.2112  0.1684
  526BF       F 9629   1.846   4.323   2.895 -0.4140 -0.2233 -0.1261
  526BF       F 9630   1.734   4.281   2.703 -0.3707 -0.0826 -0.5483
  527BF       B 9631   4.049   3.828   4.069  0.0659 -0.2380 -0.3998
  527BF       F 9632   3.960   3.858   3.971 -0.1574 -0.1183 -0.7334
  527BF       F 9633   4.017   3.712   4.133 -0.1655 -0.1001  0.4302
  527BF       F 9634   4.170   3.820   4.007 -0.2821 -0.4448 -0.2280
  527BF       F 9635   4.058   3.931   4.160  0.3970 -0.7622 -0.0293
  528BF       B 9636   2.428   4.357   3.329 -0.7531 -0.6366  0.1135
  528BF       F 9637   2.504   4.351   3.212  0.0513  0.0196 -0.9258
  528BF       F 9638   2.291   4.344   3.308  0.0495  0.1820  0.5562
  528BF       F 9639   2.465   4.254   3.417  0.0910  0.0476 -0.1891
  528BF       F 9640   2.448   4.479   3.390 -0.3678  0.0772  0.0252
  529BF       B 9641   0.001   2.787   4.435  0.5363  0.3026 -0.0501
  529BF       F 9642  -0.014   2.650   4.429  0.0292 -0.2811  0.0889
  529BF       F 9643  -0.009   2.827   4.310  0.0145  0.1540  0.2588
  529BF       F 9644  -0.089   2.852   4.516 -0.5246 -0.1316  0.2512
  529BF       F 9645   0.122   2.809   4.493  0.3298 -0.0717  0.8652
  530BF       B 9646   4.642   1.466   4.852  0.3948 -0.0456  0.4268
  530BF       F 9647   4.550   1.532   4.935 -0.5241 -0.0789 -0.5844
  530BF       F 9648   4.770   1.473   4.908  0.5083  0.5958 -0.4466
  530BF       F 9649   4.615   1.333   4.834  0.4257 -0.0448  0.3547
  530BF       F 9650   4.652   1.537   4.731  0.3516  0.4170 -0.1279
  531BF       B 9651   1.476   2.116   1.810 -0.0734  0.2432  0.4387
  531BF       F 9652   1.540   2.007   1.856 -0.4175  0.0251 -0.0692
  531BF       F 9653   1.364   2.132   1.890 -0.3057  0.1015 -0.1499
  531BF       F 9654   1.563   2.223   1.814 -0.8123 -0.0659 -0.9141
  531BF       F 9655   1.434   2.094   1.679 -0.2336  0.0054 -0.0484
  532BF       B 9656   1.819   3.818   3.446 -0.0676  0.1665 -0.4243
  532BF       F 9657   1.914   3.752   3.527 -0.5309  0.3141  0.4240
  532BF       F 9658   1.875   3.940   3.415 -0.2737 -0.6029 -0.8422
  532BF       F 9659   1.789   3.735   3.342  0.0348 -0.1957  0.2437
  532BF       F 9660   1.705   3.849   3.521  0.3598 -0.5329  0.2156
  533BF       B 9661   2.176   3.923   5.025 -0.0663  0.8922 -0.2180
  533BF       F 9662   2.276   3.867   4.941  0.5837 -0.1887 -0.3305
  533BF       F 9663   2.223   4.047   5.052  0.9499  0.2166 -0.1817
  533BF       F 9664   2.055   3.940   4.964  0.0097  0.5474  0.8143
  533BF       F 9665   2.163   3.851   5.144  0.2309  0.0307  0.0198
  534BF       B 9666   4.844   2.869   3.939  0.0920 -0.5184  0.6178
  534BF       F 9667   4.724   2.811   3.976 -0.2199 -0.0826  0.1755
  534BF       F 9668   4.819   2.988   3.872 -0.5127  0.1264  0.0599
  534BF       F 9669   4.916   2.895   4.052  0.2250  0.5979  0.2193
  534BF       F 9670   4.915   2.778   3.861 -0.0193 -0.0956  0.7048
  535BF       B 9671   2.453   1.252   3.165  0.1807  0.0500  0.0010
  535BF       F 9672   2.487   1.374   3.227 -0.1532  0.1305  0.3544
  535BF       F 9673   2.542   1.218   3.062  0.3364  0.0988  0.2188
  535BF       F 9674   2.449   1.145   3.261 -0.1843  0.2512 -0.3489
  535BF       F 9675   2.326   1.277   3.111 -0.0318  0.0581 -0.2420
  536BF       B 9676   2.968   3.798   3.716 -0.5835  0.5752 -0.0830
  536BF       F 9677   2.961   3.663   3.712 -0.6012 -0.2339 -0.1406
  536BF       F 9678   3.044   3.830   3.828  0.8003 -0.0929  0.4957
  536BF       F 9679   3.022   3.847   3.599 -0.0610  0.1749 -0.2702
  536BF       F 9680   2.836   3.852   3.722 -0.4562 -0.2525 -0.2160
  537BF       B 9681   1.615   3.233   1.488 -0.4660 -0.5089  0.9977
  537BF       F 9682   1.591   3.220   1.349  0.3201  0.1030 -0.3203
  537BF       F 9683   1.721   3.323   1.507 -0.2666  0.4491  0.1927
  537BF       F 9684   1.495   3.290   1.538  0.0118  0.1997  0.0340
  537BF       F 9685   1.629   3.101   1.532  0.1374 -0.0368 -0.0708
  538BF       B 9686   3.100   4.750   4.475 -0.1250 -0.4679 -0.5446
  538BF       F 9687   3.227   4.795   4.505  0.2611 -0.0552 -0.4435
  538BF       F 9688   3.007   4.787   4.574  0.1004  0.4847 -0.0816
  538BF       F 9689   3.059   4.808   4.358 -0.5380  0.4851  0.5916
  538BF       F 9690   3.106   4.612   4.463 -0.2325  0.1740 -0.1533
  539BF       B 9691   1.067   2.204   4.407  0.4199  0.4371 -0.7033
  539BF       F 9692   1.152   2.133   4.324  0.1142  0.2523  0.7527
  539BF       F 9693   1.092   2.169   4.541 -0.5141 -0.3875  0.1821
  539BF       F 9694   1.075   2.339   4.391  0.1396 -1.0368 -0.0946
  539BF       F 9695   0.934   2.171   4.382 -0.2523 -0.1780 -0.4517
  540BF       B 9696   1.898   4.605   3.889  0.1626  0.3552 -0.2884
  540BF       F 9697   1.901   4.476   3.836 -0.1836 -0.2487  0.3865
  540BF       F 9698   2.015   4.616   3.956 -0.1427 -0.0119 -0.1247
  540BF       F 9699   1.885   4.705   3.795  0.3680 -0.4288 -0.3939
  540BF       F 9700   1.791   4.606   3.985 -0.7568  0.1576  0.1540
  541BF       B 9701   1.444   2.435   4.869  0.4136 -0.5345 -0.2979
  541BF       F 9702   1.572   2.483   4.842 -0.0192 -0.3262  0.0027
  541BF       F 9703   1.361   2.448   4.751 -0.1574  0.0868 -0.2476
  541BF       F 9704   1.457   2.302   4.906 -0.2198 -0.6448 -0.2363
  541BF       F 9705   1.387   2.494   4.981 -0.0576  0.2978 -0.2136
  542BF       B 9706   4.886   4.993   2.689 -0.0975 -0.5572  0.0222
  542BF       F 9707   4.902   5.029   2.555  0.0081  0.3375 -0.5092
  542BF       F 9708   4.854   4.858   2.692 -0.9350 -0.3705  0.9391
  542BF       F 9709   4.998   5.013   2.764 -0.0756 -0.0480 -0.0921
  542BF       F 9710   4.782   5.063   2.746  0.2111  0.2460  0.0487
  543BF       B 9711   0.590   1.119   3.150  0.5099 -0.9898 -0.6492
  543BF       F 9712   0.555   1.063   3.031 -0.2538  0.4294 -0.1924
  543BF       F 9713   0.506   1.078   3.251 -0.0596  0.0003  0.2038
  543BF       F 9714   0.718   1.072   3.186  0.2204 -0.6346  0.9789
  543BF       F 9715   0.587   1.260   3.142  0.2700 -0.0690 -0.4812
  544BF       B 9716   3.169   2.197   3.308 -0.1204  0.0767  0.3583
  544BF       F 9717   3.121   2.092   3.230  0.6425 -0.1049 -0.3222
  544BF       F 9718   3.065   2.286   3.329  0.5374  0.6659  0.0533
  544BF       F 9719   3.219   2.152   3.427 -0.1198 -0.4938  0.3162
  544BF       F 9720   3.272   2.265   3.240  0.0761  0.0385  0.4668
  545BF       B 9721   1.103   3.462   2.121  0.2791  0.6431 -0.2925
  545BF       F 9722   0.995   3.488   2.206  0.3087  0.0114  0.2677
  545BF       F 9723   1.189   3.571   2.115 -0.5620 -0.0683  0.1483
  545BF       F 9724   1.173   3.362   2.190 -0.5259 -0.0793  0.7145
  545BF       F 9725   1.054   3.417   2.000  0.0215  0.4006 -0.1197
  546BF       B 9726   3.734   0.579   2.250  0.1328 -0.1308  0.5374
  546BF       F 9727   3.681   0.650   2.357  0.3036  0.5781 -0.2722
  546BF       F 9728   3.758   0.443   2.270  0.1705 -0.0366 -0.2528
  546BF       F 9729   3.652   0.603   2.143 -0.3260  0.1864 -0.5981
  546BF       F 9730   3.861   0.639   2.228 -0.4756  0.4887  0.6881
  547BF       B 9731   3.351   4.194   0.992 -1.1633 -0.2055 -0.5210
  547BF       F 9732   3.364   4.329   1.023 -0.0841 -0.3149  0.4916
  547BF       F 9733   3.403   4.119   1.090 -0.2545  0.2307 -0.0592
  547BF       F 9734   3.218   4.158   0.972  0.6228 -0.1147  0.1241
  547BF       F 9735   3.422   4.171   0.876  0.3792  0.1613  0.1846
  548BF       B 9736   4.162   2.601   4.643  0.1045 -0.6386  0.5701
  548BF       F 9737   4.211   2.621   4.513 -0.1897 -0.5281 -0.0173
  548BF       F 9738   4.254   2.656   4.734 -0.4589 -0.3941 -0.6253
  548BF       F 9739   4.042   2.659   4.668  0.0736 -0.3477 -0.2016
  548BF       F 9740   4.156   2.468   4.667 -0.2337  0.3004 -0.6253
  549BF       B 9741   1.923   3.850   2.110 -0.6895  0.1200  0.0640
  549BF       F 9742   1.929   3.992   2.131 -0.5597  0.4562  0.4347
  549BF       F 9743   2.038   3.798   2.154  0.0689  0.2577 -0.1752
  549BF       F 9744   1.816   3.790   2.183 -0.2405 -0.6843  0.2481
  549BF       F 9745   1.914   3.833   1.980 -0.1348  0.4710 -0.0116
  550BF       B 9746   2.898   2.384   2.390 -0.2059 -0.0861  0.0688
  550BF       F 9747   2.890   2.319   2.268  0.2047  0.3382 -0.5106
  550BF       F 9748   2.859   2.516   2.365  0.5106 -0.1788 -0.3131
  550BF       F 9749   2.805   2.326   2.475  0.0875 -0.5001 -0.0906
  550BF       F 9750   3.027   2.378   2.441  0.0509 -0.1137  0.2378
  551BF       B 9751   3.151   2.659   0.386 -1.1555  0.0823  0.1857
  551BF       F 9752   3.284   2.652   0.343 -0.1674  0.0095 -0.2794
  551BF       F 9753   3.147   2.645   0.528  0.0720  0.2903 -0.0607
  551BF       F 9754   3.087   2.780   0.350  0.1656  0.0285 -0.5642
  551BF       F 9755   3.084   2.550   0.331  0.0698  0.2827  0.1159
  552BF       B 9756   0.294   1.529   2.141  0.1110 -0.4484 -0.5738
  552BF       F 9757   0.266   1.405   2.201 -0.4358  0.0719  0.2947
  552BF       F 9758   0.182   1.611   2.164 -0.0702  0.0093 -0.2340
  552BF       F 9759   0.391   1.598   2.208  0.0402  0.3398  0.3202
  552BF       F 9760   0.327   1.514   2.007 -0.4635  0.3104 -0.8335
  553BF       B 9761   1.907   0.122   3.614 -0.7802 -0.8657  0.0052
  553BF       F 9762   1.944   0.255   3.645 -0.1547 -0.2507  0.0847
  553BF       F 9763   1.850   0.046   3.712 -0.2794  0.2204 -0.7117
  553BF       F 9764   1.810   0.131   3.513 -0.5298 -0.4645 -0.3240
  553BF       F 9765   2.018   0.051   3.576 -0.5402 -0.4763  0.5268
  554BF       B 9766   4.240   0.187   1.487  0.5453 -0.3157 -0.9079
  554BF       F 9767   4.227   0.066   1.416  0.7020 -0.0814 -0.8682
  554BF       F 9768   4.343   0.269   1.432 -0.4175  0.5591 -0.1390
  554BF       F 9769   4.121   0.255   1.468  0.5954 -0.0835  0.5668
  554BF       F 9770   4.270   0.177   1.626  0.2276 -0.1814  0.1376
  555BF       B 9771   1.176   2.952   2.848 -0.4546  0.4832 -0.1108
  555BF       F 9772   1.207   3.058   2.764  0.3138 -0.1601  0.1670
  555BF       F 9773   1.045   2.914   2.845  0.4258  0.5445 -0.0510
  555BF       F 9774   1.258   2.847   2.826  0.0468 -0.0705  0.2330
  555BF       F 9775   1.213   2.994   2.976 -0.1830  0.5245  0.5607
  556BF       B 9776   3.437   3.293   3.613  0.5387  0.1123  0.4002
  556BF       F 9777   3.336   3.343   3.528  0.3330  0.0867 -0.3183
  556BF       F 9778   3.391   3.180   3.687  0.1755 -0.1115  0.4146
  556BF       F 9779   3.544   3.254   3.537 -0.6882 -0.6301  0.3400
  556BF       F 9780   3.470   3.387   3.714 -0.1779 -0.1666 -0.2018
  557BF       B 9781   0.937   3.613   0.926  0.5055  0.6438  0.7930
  557BF       F 9782   0.864   3.512   0.865 -0.3657 -0.1765  0.4882
  557BF       F 9783   0.978   3.706   0.832  0.1405  0.2092 -0.1046
  557BF       F 9784   0.850   3.672   1.015  0.1505 -1.0297  0.2510
  557BF       F 9785   1.045   3.562   0.991 -0.0964  0.0930 -0.7579
  558BF       B 9786   3.516   4.050   3.475  0.4709  0.0798 -0.7775
  558BF       F 9787   3.627   3.999   3.537 -0.2510  0.4770 -0.1479
  558BF       F 9788   3.395   3.989   3.515 -0.2123 -0.3583 -0.3223
  558BF       F 9789   3.512   4.190   3.488 -0.0698 -0.5610 -0.1353
  558BF       F 9790   3.539   4.011   3.344  0.5543 -1.0524  0.0782
  559BF       B 9791   4.388   3.798   2.971 -0.3765 -0.3911  0.2065
  559BF       F 9792   4.295   3.749   2.880 -0.4661  0.0791  0.1802
  559BF       F 9793   4.324   3.839   3.085 -0.0737  0.3960 -0.5407
  559BF       F 9794   4.484   3.703   3.001  0.3186  0.5565 -0.1275
  559BF       F 9795   4.443   3.921   2.928  0.7697 -0.8830  0.8115
  560BF       B 9796   4.968   4.024   3.885  0.4005  0.0822  0.2763
  560BF       F 9797   4.962   4.158   3.850  0.1260 -0.5703 -0.2509
  560BF       F 9798   4.981   4.017   4.018 -0.0616 -0.1962 -0.0695
  560BF       F 9799   4.850   3.949   3.843  0.1980 -0.4454 -0.0382
  560BF       F 9800   5.078   3.969   3.832 -0.2015 -0.4522  0.1291
  561BF       B 9801   1.658   4.874   2.481 -0.2765  0.5618 -0.5265
  561BF       F 9802   1.717   4.998   2.449  0.2225  0.2919  0.0146
  561BF       F 9803   1.750   4.773   2.462  0.1756  0.7882 -0.0740
  561BF       F 9804   1.610   4.878   2.611  0.2308 -0.0504 -0.1014
  561BF       F 9805   1.551   4.850   2.402  0.2613 -0.6664 -0.0740
  562BF       B 9806   3.756   0.486   3.025  0.1183 -0.3200 -0.5330
  562BF       F 9807   3.818   0.395   2.946 -0.3470  0.2603 -0.5244
  562BF       F 9808   3.728   0.599   2.949  0.1517  0.4525 -0.0877
  562BF       F 9809   3.641   0.442   3.078  0.7014  0.7245 -0.3556
  562BF       F 9810   3.837   0.521   3.132 -0.1401  0.5848 -0.3093
  563BF       B 9811   2.534   3.566   3.119 -0.0678  0.6910  0.2316
  563BF       F 9812   2.528   3.676   3.204 -0.3888 -0.7990  0.4925
  563BF       F 9813   2.664   3.500   3.138  0.3582 -0.3654 -0.2550
  563BF       F 9814   2.438   3.471   3.143 -0.2498 -0.0635  0.8684
  563BF       F 9815   2.524   3.620   2.994  0.3021  0.0649 -0.0172
  564BF       B 9816   2.582   4.973   4.470 -0.5591  0.6099 -0.0707
  564BF       F 9817   2.513   4.856   4.434  0.5070  0.2294 -0.7799
  564BF       F 9818   2.708   4.933   4.502 -0.2023  0.2629  0.1817
  564BF       F 9819   2.574   5.069   4.370  0.0157 -0.2388  0.0282
  564BF       F 9820   2.543   5.037   4.587  0.4797  0.5433  0.4786
  565BF       B 9821   2.524   0.507   4.150  0.5681 -0.4302 -0.4084
  565BF       F 9822   2.583   0.587   4.053 -0.3837  0.2925  0.6694
  565BF       F 9823   2.562   0.376   4.144 -0.5751  0.0125 -0.3926
  565BF       F 9824   2.556   0.557   4.281 -0.2662  0.1249  0.2157
  565BF       F 9825   2.387   0.510   4.131  0.3794 -0.0058 -0.2990
  566BF       B 9826   2.077   1.856   1.828 -0.6460 -0.1265  0.2456
  566BF       F 9827   2.143   1.732   1.845 -0.1202 -0.1158 -0.3995
  566BF       F 9828   2.001   1.883   1.938  0.1636  0.3751  0.4687
  566BF       F 9829   2.183   1.947   1.812 -0.1317  0.1739  0.0496
  566BF       F 9830   2.006   1.849   1.709  0.3449  0.2261 -0.6111
  567BF       B 9831   3.882   0.738   3.944  0.4145  0.1146  0.3705
  567BF       F 9832   3.923   0.801   3.828  0.0689 -0.6153  0.0002
  567BF       F 9833   3.912   0.606   3.935  0.1193 -0.1569  0.5602
  567BF       F 9834   3.935   0.803   4.055  0.0921  0.7192 -0.3735
  567BF       F 9835   3.738   0.749   3.948  0.3513  0.0976 -0.4325
  568BF       B 9836   1.859   2.796   3.820  0.2790 -0.1230  0.2525
  568BF       F 9837   1.750   2.723   3.778 -0.6793  0.0106 -0.2853
  568BF       F 9838   1.980   2.745   3.776 -0.2102 -0.4233  0.2218
  568BF       F 9839   1.841   2.926   3.768 -0.1532 -0.1899 -0.2011
  568BF       F 9840   1.864   2.802   3.956 -0.7556 -0.0877  0.5128
  569BF       B 9841   0.615   3.003   4.267  0.0654  0.2630 -0.3618
  569BF       F 9842   0.481   3.049   4.262  0.1665 -0.0320  0.4136
  569BF       F 9843   0.677   3.041   4.389 -0.7915  0.0764 -0.0515
  569BF       F 9844   0.617   2.864   4.267 -0.0313 -0.3532  0.5882
  569BF       F 9845   0.692   3.051   4.164 -0.3780  0.3511  0.1769
  570BF       B 9846   3.669   4.605   2.374 -0.7122  0.5898 -0.4506
  570BF       F 9847   3.723   4.486   2.330 -0.0652 -0.6593  0.0181
  570BF       F 9848   3.771   4.683   2.424  0.4361  0.1775 -0.0096
  570BF       F 9849   3.613   4.678   2.275 -0.2407 -0.3907 -0.1077
  570BF       F 9850   3.574   4.572   2.463  0.5090 -0.2323  0.4802
  571BF       B 9851   4.206   3.548   0.851  0.1643 -0.2591 -0.5978
  571BF       F 9852   4.295   3.446   0.817  0.3844 -0.2680  0.4045
  571BF       F 9853   4.232   3.675   0.786  0.1047  0.1272  0.1545
  571BF       F 9854   4.082   3.498   0.822  0.7146 -0.3219  0.5247
  571BF       F 9855   4.214   3.570   0.989 -0.2216  0.0246  0.2036
  572BF       B 9856   2.299   1.379   0.459  0.1947  0.0174 -0.5960
  572BF       F 9857   2.237   1.322   0.572  0.2257 -0.1723 -0.1475
  572BF       F 9858   2.390   1.476   0.506 -0.0558  0.3332  0.7226
  572BF       F 9859   2.367   1.276   0.387 -0.4515 -0.6465 -0.2209
  572BF       F 9860   2.205   1.448   0.375 -1.2373  0.4142 -0.2764
  573BF       B 9861   4.831   1.867   2.326  0.1153  0.5932  0.0268
  573BF       F 9862   4.900   1.759   2.262  0.0179 -0.1831  0.3463
  573BF       F 9863   4.922   1.925   2.414 -0.5060  0.0577 -0.5720
  573BF       F 9864   4.793   1.951   2.221 -0.2715  0.5401  0.1773
  573BF       F 9865   4.718   1.818   2.395  0.0450 -0.4009 -0.0606
  574BF       B 9866   1.878   3.162   4.893  0.8533  1.0035 -0.3190
  574BF       F 9867   1.803   3.202   4.784 -0.4023 -0.5082 -0.0766
  574BF       F 9868   1.826   3.043   4.933 -0.0190 -0.1392  0.0219
  574BF       F 9869   2.013   3.151   4.851  0.3183 -0.3854 -0.1896
  574BF       F 9870   1.861   3.255   4.999 -0.3597  0.8391  0.3277
  575BF       B 9871   0.268   4.318   2.545 -0.1861 -0.0374 -0.4905
  575BF       F 9872   0.380   4.353   2.622 -0.5203 -0.1554 -0.1928
  575BF       F 9873   0.150   4.317   2.618 -0.1470 -0.2300  0.1232
  575BF       F 9874   0.255   4.415   2.443 -0.3768 -0.0090 -0.2421
  575BF       F 9875   0.286   4.196   2.480  0.0506  0.5039  0.7191
  576BF       B 9876   4.710   3.372   3.327  1.0178 -0.2959 -0.1405
  576BF       F 9877   4.655   3.273   3.408 -0.1098 -0.1321 -0.0142
  576BF       F 9878   4.744   3.331   3.202 -0.2265 -0.1008 -0.6537
  576BF       F 9879   4.627   3.480   3.310 -0.1341 -0.2138  0.0415
  576BF       F 9880   4.827   3.425   3.387  0.1339  0.1891  0.1937
  577BF       B 9881   0.095   2.294   0.916 -0.0692 -0.2574 -0.2238
  577BF       F 9882   0.130   2.204   0.819 -0.6370  0.0290 -0.6760
  577BF       F 9883   0.062   2.227   1.028  0.3451  0.0832 -0.2735
  577BF       F 9884   0.217   2.360   0.952  0.0826 -0.0835  0.0779
  577BF       F 9885   0.001   2.397   0.889 -0.1439  0.0067 -0.0279
  578BF       B 9886   0.204   1.124   4.713  0.0454  0.0306  0.3978
  578BF       F 9887   0.068   1.152   4.703  0.1792 -0.2569  0.2232
  578BF       F 9888   0.205   1.000   4.646  0.0814 -0.0233 -0.3435
  578BF       F 9889   0.281   1.226   4.653  0.4835  0.4428  0.1023
  578BF       F 9890   0.250   1.104   4.845 -0.3398  0.4362 -0.4190
  579BF       B 9891   1.513   1.800   3.337 -0.3705 -0.2517  0.3898
  579BF       F 9892   1.420   1.698   3.315 -0.0228  0.7827 -0.0353
  579BF       F 9893   1.625   1.774   3.259 -0.0627 -0.7364 -0.8014
  579BF       F 9894   1.452   1.916   3.310  0.5667 -0.1555  0.2580
  579BF       F 9895   1.540   1.806   3.472  0.0226 -0.0118 -0.2856
  580BF       B 9896   1.004   1.435   4.187 -0.2587 -0.0087  0.9909
  580BF       F 9897   1.039   1.364   4.078  0.4242  0.2540 -0.2152
  580BF       F 9898   1.086   1.409   4.295 -0.1153 -0.0429 -0.2736
  580BF       F 9899   1.006   1.572   4.153  0.1848 -0.1853  0.4000
  580BF       F 9900   0.877   1.401   4.228 -0.5169 -0.7265  0.4861
  581BF       B 9901   4.770   0.175   4.892 -0.1081 -0.3298  0.3002
  581BF       F 9902   4.726   0.065   4.964 -0.1192 -0.3395 -0.1977
  581BF       F 9903   4.744   0.161   4.756 -0.5147  0.5288  0.6096
  581BF       F 9904   4.704   0.289   4.935  0.5245  0.2636 -0.4154
  581BF       F 9905   4.905   0.201   4.902 -0.3489 -0.3449 -0.2761
  582BF       B 9906   2.115   2.178   2.576  0.5317 -0.0665  0.1291
  582BF       F 9907   2.061   2.162   2.706 -0.2050 -0.0367  0.4853
  582BF       F 9908   2.242   2.235   2.591  0.2164 -0.6906  0.1144
  582BF       F 9909   2.128   2.054   2.521 -0.1173  0.0393  0.1823
  582BF       F 9910   2.014   2.252   2.509 -0.1137 -0.1937  0.3422
  583BF       B 9911   4.739   2.130   3.885  0.1483 -0.3316 -0.2672
  583BF       F 9912   4.631   2.175   3.961  0.1760  0.0838  0.2422
  583BF       F 9913   4.864   2.087   3.946 -0.0559  0.0874 -0.2656
  583BF       F 9914   4.693   2.024   3.816  0.2792  0.2172 -0.2279
  583BF       F 9915   4.770   2.232   3.797  0.6412 -0.2385 -0.1295
  584BF       B 9916   3.854   4.087   2.230  0.4366 -0.1431 -0.6429
  584BF       F 9917   3.968   4.093   2.153 -0.6322  0.1865 -0.3319
  584BF       F 9918   3.768   3.987   2.187 -0.6756 -0.2092 -0.5137
  584BF       F 9919   3.887   4.070   2.363 -0.8298 -0.0724  0.2512
  584BF       F 9920   3.795   4.212   2.209  0.1217 -0.0558 -0.3834
  585BF       B 9921   3.946   0.315   3.663 -0.4261  0.0805 -0.6058
  585BF       F 9922   3.909   0.214   3.748 -0.2381  0.1453 -0.1650
  585BF       F 9923   4.060   0.388   3.716  0.0474 -0.0221  0.1464
  585BF       F 9924   3.988   0.247   3.545  0.1216  0.1685 -0.3768
  585BF       F 9925   3.842   0.397   3.632 -0.0292 -0.2358 -0.0815
  586BF       B 9926   0.428   4.180   0.071  0.7640  0.2691  0.2340
  586BF       F 9927   0.338   4.079   0.044  0.0427 -0.1286 -0.2361
  586BF       F 9928   0.497   4.150   0.183 -0.4789  0.3725 -0.1933
  586BF       F 9929   0.516   4.201  -0.034  0.0367  0.3482 -0.2147
  586BF       F 9930   0.361   4.297   0.097  0.1481 -0.0717  0.0450
  587BF       B 9931   4.662   3.699   4.461  1.3659  0.3392 -0.3042
  587BF       F 9932   4.777   3.679   4.540  0.4045  0.2964  0.0631
  587BF       F 9933   4.550   3.754   4.527 -0.1227  0.0341  0.6572
  587BF       F 9934   4.698   3.785   4.357  0.2224 -0.5557 -0.3051
  587BF       F 9935   4.622   3.575   4.413 -0.0604 -0.0606  0.3871
  588BF       B 9936   2.728   1.822   3.188 -0.9098 -0.5087 -0.6550
  588BF       F 9937   2.711   1.814   3.052  0.5959  0.0375 -0.2408
  588BF       F 9938   2.614   1.878   3.239 -0.1467 -0.2765 -0.1971
  588BF       F 9939   2.742   1.697   3.245  0.2461  0.8327 -0.2787
  588BF       F 9940   2.840   1.899   3.213 -0.3222  0.1199  0.2923
  589BF       B 9941   1.391   4.256   1.013  0.5561  0.3944 -0.7781
  589BF       F 9942   1.410   4.391   0.971  0.1420  0.0470 -0.0408
  589BF       F 9943   1.434   4.159   0.917 -0.6593  0.1439 -0.4400
  589BF       F 9944   1.450   4.233   1.140  1.0064 -0.1129  0.1178
  589BF       F 9945   1.253   4.236   1.034  0.0558 -0.0087  0.0852
  590BF       B 9946   4.010   4.661   3.205 -0.2113 -0.3079  0.2715
  590BF       F 9947   4.022   4.541   3.138  0.6768 -0.0762 -0.6164
  590BF       F 9948   3.987   4.651   3.341 -0.0676  0.5661 -0.3868
  590BF       F 9949   4.130   4.725   3.183 -0.4193 -0.7978  0.3741
  590BF       F 9950   3.911   4.733   3.150  0.0208 -0.0564 -0.0777
  591BF       B 9951   4.533   4.713   3.745  0.0084 -0.2666  1.2801
  591BF       F 9952   4.422   4.796   3.763 -0.0962  0.3195 -0.2911
  591BF       F 9953   4.529   4.657   3.616  0.2322 -0.2170 -0.1341
  591BF       F 9954   4.642   4.803   3.743 -0.1845  0.1971  0.6947
  591BF       F 9955   4.546   4.614   3.845  0.5139 -0.1421  0.0600
  592BF       B 9956   3.853   4.017   2.861  0.4082  0.4164 -0.5736
  592BF       F 9957   3.720   3.990   2.873  0.4670  0.4231 -0.1671
  592BF       F 9958   3.922   3.912   2.904  0.3186 -0.0147 -0.4761
  592BF       F 9959   3.880   4.049   2.728  0.0444 -0.0036 -0.5758
  592BF       F 9960   3.886   4.130   2.946  0.4456 -0.0219 -0.6298
  593BF       B 9961   4.321   3.100   4.403  0.2739 -0.2300 -0.8183
  593BF       F 9962   4.264   3.065   4.284 -0.0633  0.2782  0.3703
  593BF       F 9963   4.355   2.986   4.471 -0.8624 -0.1671 -0.3342
  593BF       F 9964   4.441   3.176   4.383  0.1791 -0.1718 -0.3637
  593BF       F 9965   4.230   3.171   4.486 -0.7281 -0.0219 -0.3408
  594BF       B 9966   3.296   3.749   4.290 -0.4391 -0.5944 -0.2905
  594BF       F 9967   3.228   3.869   4.281 -0.5119  0.4675 -0.1549
  594BF       F 9968   3.419   3.753   4.222  0.1366 -0.1793  0.0458
  594BF       F 9969   3.309   3.727   4.428 -0.1487  0.2284  0.0863
  594BF       F 9970   3.223   3.647   4.243 -0.1552  0.4085  0.1384
  595BF       B 9971   2.847   3.313   4.229 -0.5931  0.8419 -0.1382
  595BF       F 9972   2.767   3.374   4.329  0.2308  0.3116  0.0632
  595BF       F 9973   2.792   3.194   4.188 -0.1138 -0.3517  0.9000
  595BF       F 9974   2.850   3.393   4.116 -0.1952  0.1898  0.0653
  595BF       F 9975   2.974   3.293   4.280  0.0611 -0.1568  0.4181
  596BF       B 9976   0.985   0.861   0.907 -0.1932  0.2049  0.6631
  596BF       F 9977   1.113   0.902   0.917  0.2701 -0.1732 -0.9232
  596BF       F 9978   0.936   0.838   1.034 -0.6064  0.6730  0.0582
  596BF       F 9979   0.891   0.958   0.867 -0.8182  0.2072  0.3664
  596BF       F 9980   0.980   0.746   0.828  0.2204 -0.2922  0.4413
  597BF       B 9981   0.279   3.679   1.995 -0.2800 -0.0314  0.0899
  597BF       F 9982   0.290   3.567   1.907 -0.4399 -0.0065  0.1032
  597BF       F 9983   0.362   3.782   1.961  0.7037  0.1027 -0.1082
  597BF       F 9984   0.150   3.721   2.000  0.4168  0.4902  0.1994
  597BF       F 9985   0.309   3.645   2.129 -0.0076  0.1585 -0.7153
  598BF       B 9986   2.637   0.833   4.622  0.4524 -0.3381 -0.5056
  598BF       F 9987   2.499   0.833   4.629 -1.0471 -0.0339  0.5109
  598BF       F 9988   2.678   0.726   4.548 -0.2251  0.3643  0.3502
  598BF       F 9989   2.667   0.957   4.568 -0.4045  0.0255  0.2413
  598BF       F 9990   2.691   0.815   4.749  0.0136  0.1861  0.2598
  599BF       B 9991   0.705   0.037   1.510  0.1757 -0.1082 -0.0447
  599BF       F 9992   0.576   0.021   1.545 -0.0873  0.4595 -0.2137
  599BF       F 9993   0.774   0.102   1.609 -0.4145 -0.0110  0.2392
  599BF       F 9994   0.769  -0.083   1.479  0.0783 -0.0684 -0.5468
  599BF       F 9995   0.719   0.116   1.398  0.1788  0.3140  0.1001
  600BF       B 9996   1.076   4.396   2.821 -0.2657  0.2735 -0.4202
  600BF       F 9997   1.014   4.493   2.740 -0.2462  0.3411  0.3514
  600BF       F 9998   0.985   4.292   2.846 -0.1752 -0.3488 -0.0188
  600BF       F 9999   1.191   4.343   2.769 -0.3746  0.3897  0.3663
  600BF       F10000   1.108   4.453   2.939 -0.5853  0.3731 -0.1288
  601BF       B10001   1.620   0.417   0.902  0.2129  0.0141 -0.8342
  601BF       F10002   1.579   0.479   0.786  0.4450  0.3200 -0.6485
  601BF       F10003   1.651   0.518   0.987 -0.2545  0.1997 -0.5235
  601BF       F10004   1.515   0.342   0.956 -0.0935 -0.2603  0.0888
  601BF       F10005   1.734   0.345   0.881 -0.2732  0.2710 -0.2981
  602BF       B10006   3.440   3.025   2.757  0.0476 -0.0246  0.3731
  602BF       F10007   3.527   3.130   2.776 -0.4994 -0.4289  0.1383
  602BF       F10008   3.466   2.929   2.856  0.0417 -0.8747  0.0055
  602BF       F10009   3.311   3.076   2.780 -0.5017 -0.1298 -0.0124
  602BF       F10010   3.439   2.971   2.629 -0.3038 -0.2451 -0.6044
  603BF       B10011   0.312   1.687   2.965  0.6099 -0.0111  0.0658
  603BF       F10012   0.227   1.796   3.009 -0.4202  0.4473  0.2344
  603BF       F10013   0.385   1.639   3.072  0.2595 -0.5647  0.2532
  603BF       F10014   0.247   1.577   2.907 -0.2785 -0.4137 -0.0787
  603BF       F10015   0.409   1.728   2.872  0.3094 -0.1975 -0.5665
  604BF       B10016   4.754   0.299   3.401 -0.6220 -0.0069  0.6072
  604BF       F10017   4.781   0.174   3.348  0.1800 -0.0000 -0.0895
  604BF       F10018   4.737   0.285   3.537  0.0431  0.3000  0.1928
  604BF       F10019   4.858   0.384   3.377 -0.0186  0.3307  0.3851
  604BF       F10020   4.641   0.356   3.343 -1.1427 -0.3068  0.4075
  605BF       B10021   4.274   5.022   0.316 -0.1079 -0.2335 -0.9048
  605BF       F10022   4.202   4.911   0.354  0.5707  0.3299  0.1407
  605BF       F10023   4.356   4.980   0.214  0.1925 -0.0360  0.1996
  605BF       F10024   4.189   5.119   0.276 -0.1489 -0.1799  0.0520
  605BF       F10025   4.346   5.054   0.424 -0.6557  0.5416 -0.1672
  606BF       B10026   4.090   3.289   2.740  0.0307 -0.5270 -0.1523
  606BF       F10027   3.965   3.335   2.786  0.4179 -0.0752  0.6060
  606BF       F10028   4.138   3.364   2.637  0.0870 -0.2569  0.5237
  606BF       F10029   4.183   3.288   2.846  0.3710  0.3159 -0.3493
  606BF       F10030   4.072   3.162   2.696  0.3740  0.5951  0.3509
  607BF       B10031   0.265   0.332   1.869  0.8082 -0.0017  0.1703
  607BF       F10032   0.285   0.255   1.755  0.4896 -0.2324  0.0984
  607BF       F10033   0.223   0.256   1.980  0.2252 -0.3822 -0.1111
  607BF       F10034   0.381   0.400   1.896  0.6527  0.3395  0.3355
  607BF       F10035   0.171   0.425   1.833 -0.2226  0.6387 -0.0121
  608BF       B10036   3.608   0.290   0.208  0.2251  0.4504  0.4788
  608BF       F10037   3.638   0.301   0.076  0.3759  0.0496  0.0276
  608BF       F10038   3.515   0.189   0.223  0.1341 -0.0438 -0.0146
  608BF       F10039   3.724   0.244   0.263 -0.0304 -0.2939 -0.7551
  608BF       F10040   3.564   0.409   0.260  0.5517 -0.1816 -0.0681
  609BF       B10041   3.485   3.966   0.306  0.4710 -0.0092  0.3803
  609BF       F10042   3.474   4.053   0.410  0.0994  0.6897  0.5197
  609BF       F10043   3.572   4.024   0.207  0.0082 -0.2322  0.3903
  609BF       F10044   3.538   3.842   0.339  0.8307  0.2647  0.0906
  609BF       F10045   3.360   3.930   0.255 -0.2576 -0.1496 -0.2210
  610BF       B10046   2.385   2.975   5.042 -0.2791  0.7875  0.0414
  610BF       F10047   2.293   3.074   5.037  0.1632  0.4000 -0.0955
  610BF       F10048   2.497   3.021   5.109  0.2034 -0.5984  0.2221
  610BF       F10049   2.334   2.871   5.109  0.0152 -0.3959 -0.4740
  610BF       F10050   2.417   2.945   4.907 -0.0513 -0.0936  0.3923
  611BF       B10051   0.896   0.143   4.800  0.1158  0.6051  0.5891
  611BF       F10052   0.988   0.166   4.897 -0.5706  0.3990 -0.1134
  611BF       F10053   0.767   0.201   4.831 -0.9712 -0.1247 -0.0850
  611BF       F10054   0.939   0.200   4.676 -0.6579  0.3107 -0.1492
  611BF       F10055   0.881   0.004   4.783 -0.1354  0.3534 -0.3486
  612BF       B10056   0.691   0.691   0.468 -0.2829  0.6432  0.2473
  612BF       F10057   0.702   0.597   0.574  0.2800 -0.3739 -0.2051
  612BF       F10058   0.719   0.820   0.508 -0.5516  0.0030  0.3744
  612BF       F10059   0.780   0.650   0.367  0.5550 -0.5308 -0.3026
  612BF       F10060   0.564   0.678   0.411  0.0986 -0.4282 -0.1414
  613BF       B10061   0.443   2.552   4.961  0.5112  0.8169  0.0638
  613BF       F10062   0.376   2.635   5.044  0.9272 -0.4028  0.5777
  613BF       F10063   0.395   2.576   4.827 -1.0404  0.1662 -0.4113
  613BF       F10064   0.578   2.583   4.975 -0.3138 -0.0005  0.8473
  613BF       F10065   0.413   2.427   5.006  0.2349  0.3807  0.0704
  614BF       B10066   0.979   2.152   2.338 -1.2205  0.6548  0.0864
  614BF       F10067   0.871   2.247   2.321  0.9609  0.0291  0.2739
  614BF       F10068   1.083   2.188   2.248 -0.0977  0.4016 -0.8658
  614BF       F10069   1.029   2.158   2.465  0.0841  0.4142  0.0184
  614BF       F10070   0.947   2.022   2.305  0.2772  0.0482  0.4880
  615BF       B10071   0.776   2.810   0.584 -0.3121 -0.4368  0.0750
  615BF       F10072   0.784   2.675   0.603  0.1137  0.1562 -0.4376
  615BF       F10073   0.648   2.849   0.551  0.1437  0.8198 -0.1556
  615BF       F10074   0.824   2.887   0.690  0.0108 -0.6083  0.0818
  615BF       F10075   0.853   2.841   0.474  0.0807  0.0048  0.0620
  616BF       B10076   3.878   1.339   2.987 -0.0746 -0.6700 -0.1775
  616BF       F10077   3.935   1.217   3.017 -0.0744  0.1737  0.6361
  616BF       F10078   3.813   1.392   3.102  0.8144 -0.8863  0.3439
  616BF       F10079   3.980   1.424   2.940  0.3171  0.1453  0.3555
  616BF       F10080   3.783   1.315   2.893  0.2710 -0.5497  0.1562
  617BF       B10081   4.296   2.515   1.394 -0.2441  0.2686  0.2881
  617BF       F10082   4.170   2.466   1.385 -0.4587 -0.0459  0.1564
  617BF       F10083   4.373   2.453   1.289  0.4431 -0.0766  0.1783
  617BF       F10084   4.295   2.649   1.376  0.0328  0.1712 -0.5227
  617BF       F10085   4.343   2.492   1.522  0.1489  0.6632  0.0682
  618BF       B10086   4.858   3.118   4.947 -0.2486 -0.6442  0.2204
  618BF       F10087   4.726   3.098   4.972 -0.1072 -0.6800 -0.4679
  618BF       F10088   4.889   3.057   4.825  0.4552 -0.2080 -0.3898
  618BF       F10089   4.886   3.258   4.943 -0.1582 -0.3760 -0.1268
  618BF       F10090   4.926   3.050   5.043 -0.2246 -0.0953 -0.2208
  619BF       B10091   0.587   1.797   1.846 -0.5053  1.1453  0.6997
  619BF       F10092   0.558   1.681   1.767  0.0765  0.1687 -0.0301
  619BF       F10093   0.694   1.852   1.778 -0.5502 -0.5270  0.0994
  619BF       F10094   0.476   1.881   1.839 -0.0833 -0.4962 -0.2126
  619BF       F10095   0.634   1.769   1.976  0.3910 -0.0086  0.0556
  620BF       B10096   1.171   3.959   1.914 -0.3907  0.3138  0.8003
  620BF       F10097   1.243   4.034   2.010  0.2604  0.2620 -0.3804
  620BF       F10098   1.266   3.912   1.819 -0.1088 -0.3348  0.2102
  620BF       F10099   1.107   3.851   1.970 -0.1335 -0.6481  0.6082
  620BF       F10100   1.077   4.033   1.851 -0.2508  0.4944 -0.0641
  621BF       B10101   1.984   1.406   3.118 -0.2921  0.2084 -0.4111
  621BF       F10102   1.933   1.293   3.052 -0.0789 -0.0396  0.3511
  621BF       F10103   2.089   1.465   3.047  0.0903 -0.1590 -0.0901
  621BF       F10104   1.879   1.497   3.131 -0.0776  0.3854 -0.2765
  621BF       F10105   2.023   1.362   3.249  0.3837 -0.0864  0.2506
  622BF       B10106   4.769   2.605   2.914  0.4194  0.0461 -0.5458
  622BF       F10107   4.776   2.539   2.794 -0.3534 -0.5231  0.0453
  622BF       F10108   4.820   2.730   2.901  0.3411  0.0948  0.2135
  622BF       F10109   4.636   2.625   2.944  0.4447 -0.5787 -0.1830
  622BF       F10110   4.835   2.542   3.017  0.0190  0.1121 -0.1248
  623BF       B10111   4.922   3.786   2.700 -1.0516 -0.2339 -0.0677
  623BF       F10112   4.788   3.795   2.733 -0.2846 -0.3693 -0.4412
  623BF       F10113   4.975   3.661   2.714  0.1496 -0.0167  0.3304
  623BF       F10114   4.944   3.821   2.566 -0.3364 -0.4229 -0.7026
  623BF       F10115   4.989   3.871   2.785  0.0455  0.4835 -0.3030
  624BF       B10116   3.883   4.696   1.315 -0.8917  0.3012  0.1502
  624BF       F10117   3.802   4.676   1.426  0.1064 -0.1221  0.5300
  624BF       F10118   3.863   4.592   1.233 -0.2670 -0.0275  0.2980
  624BF       F10119   3.842   4.821   1.262 -0.5129 -0.1579 -0.6320
  624BF       F10120   4.013   4.705   1.361  0.5188  0.0087  0.2098
  625BF       B10121   4.035   1.458   3.646  0.3644  0.4065  0.1711
  625BF       F10122   3.970   1.345   3.601  0.1232 -0.1954  0.1038
  625BF       F10123   4.042   1.544   3.535 -0.0382  0.3669  0.5128
  625BF       F10124   3.957   1.516   3.747  0.1644 -0.0100  0.2043
  625BF       F10125   4.160   1.420   3.692 -0.3249  0.3241  0.0592
  626BF       B10126   1.132   3.137   0.350 -0.1602 -0.1119  0.5547
  626BF       F10127   1.154   3.052   0.455 -0.1624 -0.6309 -0.2000
  626BF       F10128   1.106   3.056   0.237  0.4999  0.1862  0.0193
  626BF       F10129   1.030   3.228   0.367  0.0313 -0.0394 -0.7227
  626BF       F10130   1.250   3.210   0.328 -0.0422 -0.3145  0.6877
  627BF       B10131   4.506   2.575   3.320  0.5124 -0.4537 -0.3388
  627BF       F10132   4.549   2.451   3.353  0.0306 -0.2702  0.1846
  627BF       F10133   4.417   2.573   3.212 -0.3777  0.2855  0.3095
  627BF       F10134   4.450   2.642   3.429 -0.1433 -0.7248 -0.2359
  627BF       F10135   4.617   2.649   3.283  0.2834 -0.6295  0.1607
  628BF       B10136   2.145   4.068   1.466 -0.0078  0.4521  0.1467
  628BF       F10137   2.152   4.177   1.549  0.1414 -0.1289  0.2085
  628BF       F10138   2.159   4.099   1.330 -0.0818 -0.0996 -0.5739
  628BF       F10139   2.256   3.990   1.505  0.7540 -0.7887 -0.4465
  628BF       F10140   2.028   3.998   1.493  0.1511 -0.0561  0.5363
  629BF       B10141   2.043   1.444   4.587  0.5153  0.1208  0.3779
  629BF       F10142   2.153   1.369   4.591  0.0328  0.3066 -0.2195
  629BF       F10143   1.946   1.385   4.509 -0.2674 -0.4911 -0.1527
  629BF       F10144   1.989   1.465   4.707  0.0050  0.4352 -0.0429
  629BF       F10145   2.083   1.568   4.539 -0.1807 -0.3419  0.5104
  630BF       B10146   0.271   1.038   2.494 -0.1944 -0.3633 -0.3510
  630BF       F10147   0.281   0.899   2.482  0.0379  0.2418 -0.3393
  630BF       F10148   0.355   1.096   2.394 -0.0428 -0.0228  0.6501
  630BF       F10149   0.138   1.084   2.473  0.5000 -0.3437 -0.3109
  630BF       F10150   0.322   1.072   2.622 -0.1121 -0.4469  0.5409
  631BF       B10151   4.375   1.709   4.284 -0.8482 -0.1595 -0.0356
  631BF       F10152   4.333   1.615   4.190  0.0687  0.0761 -0.6428
  631BF       F10153   4.302   1.822   4.293 -0.4690  0.1028 -0.0575
  631BF       F10154   4.371   1.654   4.410 -0.5899  0.5267  0.7235
  631BF       F10155   4.507   1.740   4.244 -0.1286  0.2904  0.1263
  632BF       B10156   0.587   1.563   0.066  0.1886  0.0970  0.0407
  632BF       F10157   0.712   1.509   0.021 -0.0663 -0.2226  0.0542
  632BF       F10158   0.619   1.682   0.132  0.3658  0.1420 -0.0945
  632BF       F10159   0.516   1.587  -0.050  0.4152  0.3834  0.0306
  632BF       F10160   0.518   1.471   0.146  0.6694 -0.4244 -0.3843
  633BF       B10161   4.304   3.305   3.776  0.4266 -0.3634 -0.0937
  633BF       F10162   4.225   3.417   3.733  0.1472  0.7331  0.3623
  633BF       F10163   4.331   3.316   3.912  0.1275  0.4399 -0.0838
  633BF       F10164   4.240   3.190   3.752 -0.0459  0.2682 -0.0258
  633BF       F10165   4.424   3.310   3.714  0.1920 -0.0944  0.1040
  634BF       B10166   1.970   1.754   0.788  0.6795  0.0295  0.4337
  634BF       F10167   1.897   1.773   0.901  0.0772 -0.4682 -0.1510
  634BF       F10168   2.024   1.880   0.748  0.2293  0.0992  0.0488
  634BF       F10169   2.073   1.666   0.818 -0.0750 -0.3865  0.4326
  634BF       F10170   1.892   1.698   0.689 -0.5777 -0.2467 -0.4390
  635BF       B10171   4.458   3.632   0.125  0.5552 -0.0178  0.1912
  635BF       F10172   4.404   3.762   0.115 -0.5523 -0.0876  0.5216
  635BF       F10173   4.536   3.617   0.005  0.2956  0.2491  0.2302
  635BF       F10174   4.539   3.612   0.238  0.0681  0.7520 -0.3805
  635BF       F10175   4.354   3.536   0.133 -0.8142  0.0687  0.7496
  636BF       B10176   4.922   4.692   1.723 -0.2522 -0.0781 -0.1680
  636BF       F10177   4.918   4.556   1.762  0.4019 -0.2745  0.1421
  636BF       F10178   4.961   4.773   1.829 -0.3681 -0.3835  0.1122
  636BF       F10179   5.013   4.702   1.622  0.1823  1.0083 -0.2838
  636BF       F10180   4.803   4.727   1.669  0.1520  0.1182  0.1240
  637BF       B10181   0.428   3.451   2.719  0.4742  0.2610  1.5845
  637BF       F10182   0.433   3.407   2.586 -0.0163 -0.5252 -0.2419
  637BF       F10183   0.345   3.562   2.725  0.0860  0.4982  0.0079
  637BF       F10184   0.379   3.357   2.799  0.1199 -0.7354 -0.0422
  637BF       F10185   0.552   3.487   2.767 -0.4613  0.5719  0.2880
  638BF       B10186   1.965   2.805   2.663  0.1800 -0.0248  1.2330
  638BF       F10187   1.853   2.720   2.658  0.2255  0.2371 -0.2928
  638BF       F10188   2.014   2.822   2.539  0.0292  0.0035  1.0437
  638BF       F10189   1.927   2.931   2.716 -0.2178 -0.3816  0.2599
  638BF       F10190   2.067   2.751   2.737  0.3645 -0.1250  0.0980
  639BF       B10191   4.496   1.981   0.038  0.3849 -0.8172 -0.1175
  639BF       F10192   4.499   2.045  -0.081 -0.3965 -0.9378 -0.1521
  639BF       F10193   4.622   1.929   0.068 -0.1856 -0.4756 -0.0412
  639BF       F10194   4.461   2.083   0.134  0.1760 -0.1539  0.4165
  639BF       F10195   4.399   1.884   0.034 -0.3370  0.1594 -0.2309
  640BF       B10196   2.900   2.661   3.845 -0.0247  0.1003  0.0616
  640BF       F10197   2.990   2.560   3.868 -0.0384 -0.3467 -0.3784
  640BF       F10198   2.817   2.670   3.957 -0.0536  0.0988 -0.2466
  640BF       F10199   2.965   2.780   3.820 -0.2800  0.1229  0.2677
  640BF       F10200   2.824   2.627   3.728  0.2562  0.2091  0.0585
  641BF       B10201   2.761   2.335   1.437 -0.3765 -0.5854  0.0817
  641BF       F10202   2.743   2.463   1.402  0.1129 -0.1222 -0.0719
  641BF       F10203   2.895   2.295   1.423 -0.1711  0.0835  0.0608
  641BF       F10204   2.717   2.319   1.565  0.2703  0.3003  0.0359
  641BF       F10205   2.690   2.257   1.350  0.2039  0.5863  0.1213
  642BF       B10206   1.257   3.184   4.681 -0.1363 -0.0417  0.9827
  642BF       F10207   1.135   3.118   4.677  0.2718 -0.2882 -0.6806
  642BF       F10208   1.289   3.215   4.547 -0.1216 -0.0760  0.2171
  642BF       F10209   1.239   3.300   4.758  0.1912 -0.0506 -0.1364
  642BF       F10210   1.362   3.101   4.724  0.0713 -0.3248  0.0117
  643BF       B10211   1.123   4.606   0.180 -0.1880 -0.0681 -0.2797
  643BF       F10212   1.139   4.465   0.165  0.2561 -0.3726  0.0324
  643BF       F10213   0.981   4.619   0.178 -0.3166 -0.1005 -0.3002
  643BF       F10214   1.166   4.654   0.301  0.3936  0.4030  0.2109
  643BF       F10215   1.185   4.676   0.082 -0.5409 -0.0489  0.1053
  644BF       B10216   4.847   3.819   1.345 -0.0371  0.4859  0.1053
  644BF       F10217   4.928   3.705   1.334 -0.7229  0.9377 -0.0233
  644BF       F10218   4.759   3.797   1.445 -0.0549  0.2060  0.1168
  644BF       F10219   4.928   3.925   1.375  0.1306  0.3319  0.2307
  644BF       F10220   4.784   3.848   1.225  0.1438  0.6495 -0.2004
  645BF       B10221   1.589   0.382   2.555  0.7683 -0.0889  0.8129
  645BF       F10222   1.553   0.514   2.537 -0.0808 -0.0061  0.0934
  645BF       F10223   1.635   0.367   2.689 -0.3793  0.3808  0.1566
  645BF       F10224   1.487   0.292   2.529  0.0470 -0.1456 -0.4392
  645BF       F10225   1.693   0.353   2.465  0.6154  0.5940  0.5929
  646BF       B10226   0.904   1.526   1.164 -0.4698  0.0123 -0.4577
  646BF       F10227   0.928   1.433   1.263  0.4066  0.1706 -0.0606
  646BF       F10228   0.997   1.626   1.172 -0.6552  0.1983 -0.4136
  646BF       F10229   0.925   1.455   1.044 -0.1974  0.1807 -0.1357
  646BF       F10230   0.779   1.578   1.179  0.4720  0.1077 -0.5613
  647BF       B10231   4.017   2.974   3.383  1.1211 -0.0682 -0.4807
  647BF       F10232   3.932   3.071   3.330  0.1353  0.0690  0.2514
  647BF       F10233   3.996   2.971   3.521  0.2382  0.1325 -0.4012
  647BF       F10234   3.989   2.855   3.325  0.4095  0.1676  0.0439
  647BF       F10235   4.154   3.013   3.368 -0.1236  0.2181  0.5139
  648BF       B10236   3.823   5.039   0.800 -0.4070  0.2313 -0.2986
  648BF       F10237   3.942   5.020   0.738  0.0961 -0.1423  0.1956
  648BF       F10238   3.733   4.955   0.743  0.0727  0.3848  0.6184
  648BF       F10239   3.840   5.008   0.931 -0.1739  0.2153 -0.2438
  648BF       F10240   3.782   5.168   0.778 -0.2937 -0.2054  0.1587
  649BF       B10241   1.786   3.437   2.866 -0.0528 -0.1612 -0.1336
  649BF       F10242   1.809   3.308   2.823  0.2289 -0.1172 -0.3653
  649BF       F10243   1.727   3.420   2.988  0.0419  0.3437 -0.0041
  649BF       F10244   1.899   3.513   2.890  0.0767 -0.3103 -0.2580
  649BF       F10245   1.705   3.507   2.775  0.2421 -0.2730  0.0889
  650BF       B10246   4.674   4.406   1.342 -0.5941 -0.1607 -1.0220
  650BF       F10247   4.616   4.506   1.263  0.3987  0.3969  0.1981
  650BF       F10248   4.589   4.304   1.371 -0.1819  0.0325 -0.2725
  650BF       F10249   4.788   4.342   1.281  0.1010  0.0015 -0.9314
  650BF       F10250   4.728   4.461   1.459 -0.1168  0.0161 -0.0065
  651BF       B10251   3.602   2.578   3.521  0.4195 -0.3212 -0.3589
  651BF       F10252   3.611   2.669   3.621  0.3188  0.0708 -0.7242
  651BF       F10253   3.720   2.597   3.449  0.4969  0.5985 -0.1863
  651BF       F10254   3.596   2.449   3.567 -0.0308  0.3043  0.2387
  651BF       F10255   3.500   2.610   3.427 -0.4606  0.1125 -0.2385
  652BF       B10256   0.035   2.058   1.437 -0.4448 -0.8882 -0.2844
  652BF       F10257   0.063   2.001   1.318  0.0671 -0.2804 -0.4109
  652BF       F10258   0.155   2.060   1.513  0.0024  0.8569 -0.3859
  652BF       F10259   0.006   2.193   1.414  0.1691  0.1809  0.6850
  652BF       F10260  -0.068   1.991   1.502 -0.2287  1.1495  0.4730
  653BF       B10261   1.314   0.659   3.533 -0.3446  0.2297 -0.2549
  653BF       F10262   1.232   0.549   3.560  0.5976 -0.1797 -0.0530
  653BF       F10263   1.343   0.659   3.400 -0.2339 -0.2787 -0.1778
  653BF       F10264   1.241   0.776   3.550  0.5349 -0.5275 -0.2272
  653BF       F10265   1.423   0.665   3.617  0.0252 -0.2326 -0.3084
  654BF       B10266   0.394   4.822   2.939  0.7583  0.4178 -0.3901
  654BF       F10267   0.461   4.804   2.819  0.4353 -0.1485  0.3481
  654BF       F10268   0.300   4.925   2.927  0.5934  0.5873  0.0105
  654BF       F10269   0.333   4.703   2.981  0.8390 -0.0843  0.1940
  654BF       F10270   0.490   4.840   3.032  0.0746  0.0831  0.3567
  655BF       B10271   2.103   0.000   2.973 -0.0291  0.2390 -0.1161
  655BF       F10272   2.052   0.120   2.924  0.2379 -0.0523  0.5306
  655BF       F10273   2.211  -0.040   2.904  0.0587  0.4710 -0.4295
  655BF       F10274   2.145   0.013   3.105  0.0774 -0.1149 -0.1198
  655BF       F10275   2.006  -0.093   2.955  0.5349  0.2181  0.3198
  656BF       B10276   4.067   1.492   1.045 -0.2458 -0.2487  0.0362
  656BF       F10277   4.086   1.401   0.944 -0.4253 -0.5757 -0.1906
  656BF       F10278   3.931   1.496   1.060  0.0018  0.0751  0.0012
  656BF       F10279   4.124   1.458   1.170 -0.5704 -1.0577 -0.0457
  656BF       F10280   4.118   1.618   1.005 -0.1658  0.1389  0.3083
  657BF       B10281   2.084   0.233   1.417  0.5905 -0.7779 -0.2916
  657BF       F10282   1.997   0.154   1.342 -0.2809  0.2139 -0.2532
  657BF       F10283   2.138   0.334   1.339 -0.0865 -0.5584  0.3979
  657BF       F10284   2.003   0.297   1.507 -0.0240  0.2959 -0.3677
  657BF       F10285   2.181   0.160   1.488 -0.2432 -0.1177 -0.3632
  658BF       B10286   4.694   3.137   2.630  0.0987 -0.4516  0.1764
  658BF       F10287   4.717   3.150   2.765  0.3673  0.4306 -0.3511
  658BF       F10288   4.806   3.201   2.573 -0.0479 -0.2074 -0.2908
  658BF       F10289   4.672   3.008   2.587 -0.3053 -0.3782 -0.0530
  658BF       F10290   4.589   3.211   2.589  0.6965 -0.2393  0.3036
  659BF       B10291   4.752   3.924   2.178 -0.2007 -0.0625  0.2417
  659BF       F10292   4.721   4.036   2.251 -0.0548  0.8443 -0.5071
  659BF       F10293   4.645   3.832   2.181  0.3596  0.4116 -0.1083
  659BF       F10294   4.791   3.964   2.047 -0.1828  0.3769  0.7539
  659BF       F10295   4.862   3.861   2.237  0.4874  0.2111 -0.1176
  660BF       B10296   1.890   0.970   2.195  0.7273 -0.2482  0.0957
  660BF       F10297   1.863   0.886   2.294  0.0725  0.0131 -0.1278
  660BF       F10298   1.798   1.075   2.187  0.5103  0.0128 -0.5794
  660BF       F10299   2.018   1.021   2.205  0.0389 -0.8295  0.2733
  660BF       F10300   1.879   0.897   2.075  0.3836  0.6007 -0.0737
  661BF       B10301   4.441   0.615   2.674  0.2491  0.8498 -0.9553
  661BF       F10302   4.444   0.588   2.544 -0.1149 -0.2088  0.0530
  661BF       F10303   4.405   0.489   2.738 -0.0672  0.2203  0.0291
  661BF       F10304   4.571   0.656   2.707  0.2005 -0.3381  0.2428
  661BF       F10305   4.348   0.714   2.698 -0.1848 -0.1846 -0.1678
  662BF       B10306   0.195   0.839   0.587 -0.6840  0.0963  0.1596
  662BF       F10307   0.238   0.874   0.715  0.3551 -0.3976 -0.2634
  662BF       F10308   0.064   0.805   0.586  0.4672  0.0493 -0.1106
  662BF       F10309   0.231   0.939   0.509 -0.2520 -0.1984  0.1216
  662BF       F10310   0.278   0.734   0.551  0.0124 -0.5692  0.2473
  663BF       B10311   4.544   0.139   4.249 -0.0661 -0.3130  0.0249
  663BF       F10312   4.497   0.216   4.355  0.3429  0.0846 -0.0881
  663BF       F10313   4.426   0.093   4.191  0.0764  0.0865 -0.1245
  663BF       F10314   4.614   0.222   4.167 -0.5169  0.2612  0.1062
  663BF       F10315   4.614   0.038   4.312  0.1198 -0.3735 -0.0601
  664BF       B10316   0.457   0.280   3.429  0.5612  0.0524 -0.2114
  664BF       F10317   0.460   0.417   3.405 -0.5321 -0.1290 -0.7033
  664BF       F10318   0.453   0.207   3.309  0.5391 -0.4595  0.2291
  664BF       F10319   0.570   0.230   3.495 -0.0342  0.2945 -0.2076
  664BF       F10320   0.350   0.250   3.508  0.2672 -0.0250 -0.7993
  665BF       B10321   3.132   0.334   2.476 -0.6991  0.2712  0.1336
  665BF       F10322   3.176   0.357   2.606  0.0902  0.2944  0.0645
  665BF       F10323   3.244   0.352   2.406  0.2649 -0.0644 -0.2136
  665BF       F10324   3.104   0.193   2.464 -0.1861 -0.8261 -0.0769
  665BF       F10325   3.024   0.411   2.439  0.2708 -0.0734  0.9285
  666BF       B10326   3.175   1.756   0.923 -1.0005  0.1756 -0.1804
  666BF       F10327   3.103   1.851   0.993 -0.5330 -0.1520 -0.0908
  666BF       F10328   3.094   1.674   0.839 -0.3901 -0.1492  0.5092
  666BF       F10329   3.263   1.820   0.836  0.3118  0.3103 -0.5788
  666BF       F10330   3.240   1.684   1.023 -0.0625  0.2811 -0.4963
  667BF       B10331   4.708   1.560   3.370  0.3646  0.2340  0.0795
  667BF       F10332   4.628   1.517   3.479 -0.1236  0.8709  0.1454
  667BF       F10333   4.840   1.524   3.379 -0.0418  0.1909 -0.1915
  667BF       F10334   4.656   1.496   3.255  0.2994  0.1054 -0.5369
  667BF       F10335   4.701   1.701   3.362 -0.4924  0.1605 -0.1401
  668BF       B10336   3.802   2.579   0.288  0.1854  0.3151 -0.1458
  668BF       F10337   3.914   2.502   0.247  0.1163 -0.6382 -0.8960
  668BF       F10338   3.685   2.529   0.233  0.1796  0.5049  0.1451
  668BF       F10339   3.801   2.586   0.425  0.2781  0.1038 -0.3264
  668BF       F10340   3.814   2.704   0.231 -0.5227  0.0361 -0.1884
  669BF       B10341   1.975   0.877   1.278 -0.0966 -0.1424 -0.4158
  669BF       F10342   2.064   0.976   1.234 -0.0250  0.1133 -0.3253
  669BF       F10343   1.989   0.852   1.413 -0.0897 -0.1345 -0.1230
  669BF       F10344   1.840   0.911   1.253 -1.0428 -0.2706 -0.1111
  669BF       F10345   2.004   0.761   1.215 -0.0486 -0.0787  0.2957
  670BF       B10346   1.570   4.947   3.996 -0.2193  0.4523  1.0221
  670BF       F10347   1.443   4.937   3.944 -0.4620 -0.1544 -0.1930
  670BF       F10348   1.562   4.873   4.117  0.0444 -0.0989 -0.4419
  670BF       F10349   1.660   4.883   3.917 -0.2695  0.3544 -0.4297
  670BF       F10350   1.604   5.082   4.015  0.3800 -0.4044  0.1642
  671BF       B10351   2.417   1.264   1.862  0.2465  0.0475  0.1689
  671BF       F10352   2.272   1.272   1.864 -0.0354  0.0752 -0.1696
  671BF       F10353   2.464   1.320   1.745  0.2779  0.1804  0.2562
  671BF       F10354   2.469   1.347   1.966  0.0761  0.6053  0.1773
  671BF       F10355   2.463   1.139   1.890  0.3086 -0.2477  0.4026
  672BF       B10356   2.731   0.679   0.356  0.0647 -0.4227 -0.4616
  672BF       F10357   2.778   0.745   0.477 -0.3509  0.0624  0.3935
  672BF       F10358   2.764   0.747   0.241  0.5381  0.3330 -0.3974
  672BF       F10359   2.798   0.557   0.352  0.2087  0.3141  0.1808
  672BF       F10360   2.592   0.658   0.363 -0.6873  0.1591  1.0746
  673BF       B10361   3.750   4.667   3.845  0.5679 -0.1539 -0.8481
  673BF       F10362   3.618   4.702   3.816  0.2223 -1.0148  0.4522
  673BF       F10363   3.799   4.562   3.772  0.0516 -0.8171  0.0161
  673BF       F10364   3.829   4.777   3.811  0.1278  0.1574  0.2084
  673BF       F10365   3.760   4.639   3.986 -0.0480  0.1276 -0.0429
  674BF       B10366   2.408   2.299   1.999  0.0228 -1.0084 -1.3674
  674BF       F10367   2.403   2.436   2.046 -0.2531  0.1841  0.2078
  674BF       F10368   2.537   2.255   2.002 -0.0361 -0.4469 -0.2217
  674BF       F10369   2.320   2.216   2.067  0.0741  0.4358 -0.0963
  674BF       F10370   2.377   2.293   1.865  0.4896  0.0607 -0.3220
  675BF       B10371   0.556   3.497   0.218  0.6449  0.1111  0.0208
  675BF       F10372   0.493   3.390   0.155  0.5117  0.1329  0.0153
  675BF       F10373   0.474   3.567   0.305 -0.0937  0.1385  0.0059
  675BF       F10374   0.666   3.452   0.293  0.1084  0.1985 -0.0031
  675BF       F10375   0.613   3.578   0.128 -0.1605  0.0094  0.0362
  676BF       B10376   1.811   4.849   0.011 -0.0304 -0.3688  0.4963
  676BF       F10377   1.851   4.897   0.134  0.8314  0.5711 -0.1398
  676BF       F10378   1.856   4.935  -0.088 -0.1496 -0.2164  0.0001
  676BF       F10379   1.850   4.724  -0.028  0.3924  0.5705  0.5307
  676BF       F10380   1.672   4.856   0.013 -0.5248  0.0207  0.1934
  677BF       B10381   1.495   1.971   4.020 -0.4448  0.4396 -0.3677
  677BF       F10382   1.391   1.976   4.113  0.0315 -0.7620 -0.0081
  677BF       F10383   1.535   1.842   4.001 -0.3537  0.4448 -0.1900
  677BF       F10384   1.453   2.021   3.900 -0.5531 -0.4815 -0.1454
  677BF       F10385   1.597   2.055   4.063  0.1683  0.4111  0.5340
  678BF       B10386   1.621   2.433   3.164  0.4058 -0.2944 -0.4865
  678BF       F10387   1.633   2.294   3.170 -0.0200 -0.0016  0.2433
  678BF       F10388   1.628   2.481   3.293  0.1166 -0.5229  0.5721
  678BF       F10389   1.721   2.486   3.089  0.1707  0.0877  0.2072
  678BF       F10390   1.503   2.475   3.100  0.1670  0.4153 -0.0803
  679BF       B10391   1.124   0.391   3.070  0.2543 -0.1796  0.1714
  679BF       F10392   1.178   0.437   3.193 -0.2230 -0.4228 -0.1899
  679BF       F10393   1.022   0.478   3.026 -0.0005  0.2034 -0.2880
  679BF       F10394   1.223   0.400   2.972  0.0642  0.3006  0.0885
  679BF       F10395   1.083   0.260   3.081  0.2198  0.3411  0.0380
  680BF       B10396   2.592   0.694   2.129 -0.1019 -0.0815  0.0827
  680BF       F10397   2.518   0.797   2.089 -0.0679 -0.2950  0.4899
  680BF       F10398   2.703   0.757   2.193  0.1508 -0.3442  0.2268
  680BF       F10399   2.512   0.620   2.215  0.3293 -0.0714  0.1374
  680BF       F10400   2.627   0.619   2.016 -0.0832  0.2869  0.1562
  681BF       B10401   4.050   0.803   0.092 -0.7958  0.1126 -0.1041
  681BF       F10402   4.126   0.756  -0.019 -0.2064 -0.3325 -0.0530
  681BF       F10403   4.046   0.942   0.089 -0.4797  0.0096  0.2125
  681BF       F10404   3.921   0.754   0.089 -0.5019  0.0083  0.3387
  681BF       F10405   4.107   0.764   0.214  0.4258 -0.2942  0.1563
  682BF       B10406   4.452   1.519   1.558  0.4564  0.1511  0.5391
  682BF       F10407   4.583   1.491   1.588 -0.0895  0.1456 -0.3218
  682BF       F10408   4.396   1.602   1.652  0.2551 -0.2209  0.1764
  682BF       F10409   4.439   1.578   1.432  0.4725  0.2770 -0.2111
  682BF       F10410   4.372   1.399   1.558 -0.0669 -0.2070  0.2024
  683BF       B10411   0.083   0.468   1.079  0.4181 -0.1348  0.7677
  683BF       F10412   0.181   0.509   1.169  0.6109 -0.1347  0.7338
  683BF       F10413   0.085   0.539   0.966 -0.3109  0.1209  0.0569
  683BF       F10414   0.097   0.330   1.045 -0.0209  0.5876 -0.2483
  683BF       F10415  -0.033   0.491   1.143  0.0700  0.2135 -0.1867
  684BF       B10416   3.443   4.354   4.295 -0.8345  0.3483  0.2474
  684BF       F10417   3.379   4.372   4.165 -0.0958 -0.2625 -0.2168
  684BF       F10418   3.359   4.410   4.388 -0.1165 -0.0633 -0.1156
  684BF       F10419   3.458   4.216   4.315 -0.0290 -0.0389  0.2922
  684BF       F10420   3.561   4.422   4.293  0.6521  0.4961  0.1501
  685BF       B10421   4.280   4.673   4.535  0.3462 -0.1612 -0.7637
  685BF       F10422   4.257   4.631   4.407  0.4156 -0.2309  0.2222
  685BF       F10423   4.226   4.570   4.614 -0.1489 -0.3396  0.2666
  685BF       F10424   4.416   4.693   4.555 -0.2432  0.0929  0.2861
  685BF       F10425   4.205   4.788   4.556 -0.2406  0.1292 -0.4316
  686BF       B10426   4.557   1.090   0.699  0.6773 -0.0742 -0.2050
  686BF       F10427   4.475   1.175   0.776  0.3343  0.2973 -0.6408
  686BF       F10428   4.681   1.150   0.676 -0.3720  0.1562  0.2680
  686BF       F10429   4.565   0.964   0.757  0.3873 -0.0695 -0.6020
  686BF       F10430   4.508   1.077   0.570  0.6656  0.0267  0.1906
  687BF       B10431   3.550   4.289   1.741 -0.3122 -0.2248 -0.3065
  687BF       F10432   3.663   4.372   1.751  0.1063 -0.2830  0.2065
  687BF       F10433   3.467   4.348   1.648  0.6108  0.0723  0.6231
  687BF       F10434   3.585   4.164   1.684 -0.0433 -0.1229 -0.1512
  687BF       F10435   3.482   4.277   1.862 -0.2057  0.3884 -0.3002
  688BF       B10436   2.505   4.682   2.588  0.1175  0.2024 -1.3015
  688BF       F10437   2.409   4.741   2.500 -0.5241 -0.2692 -0.0286
  688BF       F10438   2.433   4.622   2.698 -0.2205 -0.0516  0.0584
  688BF       F10439   2.570   4.581   2.523  0.2532  0.5465  0.1015
  688BF       F10440   2.598   4.778   2.624 -0.3898 -0.1540 -0.1385
  689BF       B10441   0.016   2.679   1.918 -0.8777  0.4679  0.2469
  689BF       F10442   0.072   2.786   1.981  0.3525  0.0937  0.1964
  689BF       F10443  -0.125   2.688   1.911 -0.0211  0.1909 -0.1007
  689BF       F10444   0.050   2.689   1.785  0.6501 -0.0990  0.3031
  689BF       F10445   0.069   2.556   1.975  0.0233  0.2912  0.2703
  690BF       B10446   3.717   4.992   1.932  0.4583 -0.7297 -0.1195
  690BF       F10447   3.777   4.869   1.914 -0.0221 -0.2825 -0.0518
  690BF       F10448   3.817   5.086   1.942 -0.0150 -0.5134 -0.1344
  690BF       F10449   3.627   5.020   1.830  0.4662 -0.2141  0.0947
  690BF       F10450   3.638   4.993   2.045 -0.5295  0.7889  0.3772
  691BF       B10451   1.750   4.583   1.647 -0.3265 -0.3475  0.5300
  691BF       F10452   1.762   4.682   1.746 -0.3287  0.5245 -0.2464
  691BF       F10453   1.637   4.507   1.657  0.5231 -0.6539 -0.2181
  691BF       F10454   1.770   4.640   1.521  0.1478  0.1512 -0.4930
  691BF       F10455   1.858   4.503   1.663 -0.2389 -0.5098 -0.7487
  692BF       B10456   1.963   3.985   0.752 -0.3337 -0.2065 -0.5105
  692BF       F10457   1.920   3.908   0.861  0.7730  0.9435  0.5736
  692BF       F10458   2.043   4.080   0.813  0.0361  0.2785 -0.4450
  692BF       F10459   2.035   3.908   0.667 -0.2606 -0.1349  0.2384
  692BF       F10460   1.856   4.045   0.692 -0.0479 -0.1619 -0.1739
  693BF       B10461   2.967   0.114   3.499  0.3218 -0.1782  0.4167
  693BF       F10462   3.022   0.112   3.369 -0.0043 -0.0619 -0.0192
  693BF       F10463   2.978   0.236   3.562 -0.4110  0.1526 -0.4401
  693BF       F10464   2.830   0.084   3.488 -0.2387  0.8092  0.0713
  693BF       F10465   3.028   0.015   3.585 -0.0887 -0.0860 -0.5723
  694BF       B10466   4.918   1.260   4.060 -0.1757 -0.1858 -0.0714
  694BF       F10467   5.019   1.246   4.154  0.2861 -0.0697  0.5049
  694BF       F10468   4.867   1.386   4.067  0.6076 -0.2323  0.6005
  694BF       F10469   4.962   1.226   3.938 -0.3096  0.3489 -0.2790
  694BF       F10470   4.817   1.168   4.099 -0.0166  0.1499 -0.2788
  695BF       B10471   1.277   1.853   0.372  0.4216  0.1035 -0.3721
  695BF       F10472   1.284   1.725   0.319  0.1402 -0.0610 -0.0230
  695BF       F10473   1.200   1.843   0.482  0.1302 -0.0712 -0.5565
  695BF       F10474   1.400   1.897   0.416  0.3108 -0.1011 -0.3508
  695BF       F10475   1.238   1.945   0.275 -0.0228  0.3795 -0.0364
  696BF       B10476   3.241   0.383   4.621 -0.1181  0.3295 -0.6790
  696BF       F10477   3.355   0.322   4.672 -0.4363  0.0848 -0.5721
  696BF       F10478   3.138   0.399   4.716  0.0587 -0.3674 -0.2235
  696BF       F10479   3.275   0.496   4.557 -0.4164 -0.5119 -0.3571
  696BF       F10480   3.196   0.296   4.523 -0.1366 -0.3460  0.1190
  697BF       B10481   1.595   4.419   3.388  0.0115 -0.0365 -0.8377
  697BF       F10482   1.693   4.410   3.287  0.0992  0.0825 -0.1079
  697BF       F10483   1.650   4.503   3.483  0.3774 -0.3781 -0.1581
  697BF       F10484   1.480   4.473   3.330 -0.0619 -0.2628  0.0845
  697BF       F10485   1.566   4.297   3.436  0.2208  0.8421 -0.1659
  698BF       B10486   4.026   1.457   2.184  0.6570 -0.4260 -0.0253
  698BF       F10487   4.074   1.555   2.277  0.5074  0.1737  0.0546
  698BF       F10488   3.887   1.461   2.192 -0.1011  0.0113  0.2072
  698BF       F10489   4.055   1.501   2.054  0.2815 -0.1011 -0.0922
  698BF       F10490   4.074   1.325   2.200 -0.1193  0.1228  0.2217
  699BF       B10491   3.931   4.350   0.246 -0.1937 -0.0589 -0.0072
  699BF       F10492   4.072   4.374   0.260  0.4149  0.1390  0.1089
  699BF       F10493   3.876   4.315   0.371 -0.0394  0.2556 -0.0335
  699BF       F10494   3.863   4.460   0.189  0.0430  0.3085 -0.1458
  699BF       F10495   3.898   4.235   0.160 -0.0544 -0.1707  0.0267
  700BF       B10496   2.268   0.110   2.129 -0.2640 -0.3444 -0.2269
  700BF       F10497   2.297   0.244   2.102 -0.4942 -0.3006 -0.0145
  700BF       F10498   2.387   0.051   2.169  0.2188 -0.0377 -0.7403
  700BF       F10499   2.167   0.086   2.229 -0.5919  0.2284 -0.5119
  700BF       F10500   2.230   0.053   2.009  0.3855 -0.3789 -0.1196
  701BF       B10501   3.455   1.718   2.214  0.2819 -0.8155  0.4602
  701BF       F10502   3.535   1.608   2.214  0.0709 -0.1580 -0.2263
  701BF       F10503   3.535   1.823   2.256 -0.0363 -0.3340 -0.2336
  701BF       F10504   3.401   1.742   2.086  0.3237  0.0067 -0.2892
  701BF       F10505   3.357   1.694   2.303 -0.4103  0.1851  0.1466
  702BF       B10506   3.589   3.316   4.287  0.8569 -0.8082 -0.0978
  702BF       F10507   3.572   3.233   4.398 -0.0904  0.2823 -0.3232
  702BF       F10508   3.613   3.445   4.331 -0.1671  0.0201 -0.4344
  702BF       F10509   3.692   3.270   4.205 -0.1111 -0.4045 -0.5839
  702BF       F10510   3.468   3.313   4.214  0.0231 -0.5354 -0.0154
  703BF       B10511   1.646   3.804   1.348  0.6212  0.1670  0.5701
  703BF       F10512   1.710   3.867   1.456 -0.0798 -0.5384 -0.6745
  703BF       F10513   1.741   3.729   1.284  0.2603 -0.1763  0.2281
  703BF       F10514   1.537   3.733   1.391  0.1890  0.3136 -0.5278
  703BF       F10515   1.603   3.901   1.260 -0.5807  0.2716 -0.2925
  704BF       B10516   1.121   1.453   2.548  1.2455  0.2061 -0.0387
  704BF       F10517   1.063   1.580   2.561 -0.0238  0.5720  0.0769
  704BF       F10518   1.240   1.450   2.622  0.1981  0.4080 -0.2318
  704BF       F10519   1.029   1.349   2.576 -0.0498  0.1153 -0.5136
  704BF       F10520   1.140   1.431   2.410  0.0434 -0.4220  0.0316
  705BF       B10521   3.344   4.018   4.886 -0.0545  0.5530  0.4981
  705BF       F10522   3.356   3.956   5.002  0.2168 -0.2676  0.1659
  705BF       F10523   3.334   3.930   4.779  0.7195  0.0605  0.3605
  705BF       F10524   3.229   4.093   4.899  0.4161  0.2278  0.4844
  705BF       F10525   3.459   4.093   4.874 -0.4745 -0.5068  0.0130
  706BF       B10526   2.287   1.927   0.096  0.5293 -0.0679 -0.2517
  706BF       F10527   2.370   1.847   0.171 -0.6303  0.4511 -0.2930
  706BF       F10528   2.357   1.976  -0.009 -0.3975 -0.2289  0.0687
  706BF       F10529   2.191   1.846   0.038  0.7489  0.0425 -0.3695
  706BF       F10530   2.221   2.025   0.168 -0.0565 -0.0113  0.2072
  707BF       B10531   2.486   3.732   0.510  0.2602  0.0555 -0.0963
  707BF       F10532   2.394   3.725   0.611  0.0707  0.5655  0.1719
  707BF       F10533   2.593   3.804   0.563 -0.0385 -0.3965  0.4669
  707BF       F10534   2.528   3.605   0.478 -0.0933  0.2807  0.7132
  707BF       F10535   2.439   3.799   0.399  0.2444 -0.7420  0.1663
  708BF       B10536   2.050   0.130   0.609  0.4422  0.5842 -0.2544
  708BF       F10537   1.944   0.221   0.604  0.4229 -0.1994 -0.1225
  708BF       F10538   2.016   0.020   0.692  0.8984  0.5278  0.3985
  708BF       F10539   2.071   0.085   0.479  0.3510 -0.4101  0.1200
  708BF       F10540   2.160   0.185   0.663 -0.3738  0.0395  0.2517
  709BF       B10541   2.214   4.394   1.981 -0.1731  0.0012  0.1673
  709BF       F10542   2.112   4.307   2.003 -0.4464  0.3354 -0.0679
  709BF       F10543   2.320   4.322   1.931  0.0670 -0.0821 -0.4567
  709BF       F10544   2.177   4.491   1.885  0.3524 -0.1891 -0.4863
  709BF       F10545   2.253   4.453   2.103  0.3508 -0.3394 -0.1020
  710BF       B10546   0.622   2.875   3.654 -0.6889 -0.1022  0.2951
  710BF       F10547   0.621   2.740   3.620 -0.4919  0.2504  0.3172
  710BF       F10548   0.711   2.904   3.760 -0.6496  0.1659 -0.0404
  710BF       F10549   0.674   2.945   3.544 -0.0703  0.9264 -0.1483
  710BF       F10550   0.496   2.921   3.688  0.2596 -0.4439  0.9567
  711BF       B10551   1.582   1.150   1.647  0.1904  0.0087  0.1866
  711BF       F10552   1.607   1.261   1.719  0.2301  0.0194  0.3167
  711BF       F10553   1.594   1.195   1.516  0.1634  0.1977 -0.1327
  711BF       F10554   1.676   1.050   1.671  0.2543 -0.0389 -0.2738
  711BF       F10555   1.451   1.102   1.664 -0.1099  0.1311 -0.4710
  712BF       B10556   3.327   1.894   2.736  0.4544  0.1105  0.2063
  712BF       F10557   3.364   1.943   2.863  0.3109 -0.4646  0.3382
  712BF       F10558   3.429   1.935   2.642  0.2439 -0.5327  0.1754
  712BF       F10559   3.308   1.755   2.729 -0.8043  0.1315 -0.1782
  712BF       F10560   3.212   1.968   2.691  0.1395 -0.1262  0.9034
  713BF       B10561   4.009   4.209   0.879  0.3894 -0.0849  0.2736
  713BF       F10562   4.132   4.201   0.953  0.0831 -0.0191  0.1166
  713BF       F10563   3.903   4.199   0.969  0.2671  0.7340  0.0664
  713BF       F10564   4.006   4.333   0.817  0.1814  0.7205  0.0154
  713BF       F10565   3.988   4.104   0.789 -0.0699 -0.6197 -0.2249
  714BF       B10566   2.405   0.421   2.529  0.1795  0.3565 -0.6080
  714BF       F10567   2.513   0.375   2.600 -0.0343  0.2957 -0.0204
  714BF       F10568   2.397   0.347   2.409 -0.4172  0.1678 -0.1121
  714BF       F10569   2.289   0.415   2.610 -0.1229  0.1574  0.2022
  714BF       F10570   2.423   0.556   2.498 -0.2756  0.1783  0.1668
  715BF       B10571   1.967   0.127   4.470  0.2088 -0.5446  0.9246
  715BF       F10572   1.908   0.009   4.454  0.0877 -0.7939 -0.7664
  715BF       F10573   1.917   0.207   4.376 -0.6113 -0.2799  0.0498
  715BF       F10574   1.954   0.180   4.597 -0.1775 -0.6289  0.0437
  715BF       F10575   2.099   0.108   4.439 -0.4778 -0.1263 -0.5155
  716BF       B10576   3.938   3.048   1.295 -0.1975  0.0613  0.7287
  716BF       F10577   4.020   2.942   1.274  0.1468 -0.1242 -0.2572
  716BF       F10578   3.879   3.051   1.420  0.1762 -0.0562 -0.4254
  716BF       F10579   4.022   3.161   1.289  0.4115  0.0580 -0.0253
  716BF       F10580   3.838   3.054   1.200  0.2708  0.0351  0.3562
  717BF       B10581   0.800   0.429   2.057 -0.1181 -0.6304 -0.2170
  717BF       F10582   0.757   0.296   2.051  0.3759  0.0373  0.4327
  717BF       F10583   0.688   0.511   2.035  0.1715  0.1820  0.2211
  717BF       F10584   0.857   0.466   2.175 -0.4953  0.3096  0.0487
  717BF       F10585   0.886   0.440   1.951 -0.1791  0.3777 -0.6868
  718BF       B10586   1.441   2.698   0.410 -0.4174  0.1234 -0.3232
  718BF       F10587   1.341   2.719   0.318  0.1421 -0.0926  0.0530
  718BF       F10588   1.564   2.707   0.348  0.4754  0.0113  0.1878
  718BF       F10589   1.431   2.799   0.510 -0.3702  0.2252  0.1843
  718BF       F10590   1.426   2.571   0.472  0.1528 -0.0536 -0.3109
  719BF       B10591   2.502   2.853   4.350 -0.1653 -0.1807  0.0002
  719BF       F10592   2.480   2.772   4.458  0.3586  0.1410  0.2746
  719BF       F10593   2.637   2.875   4.325 -0.0745  0.0409 -0.1849
  719BF       F10594   2.444   2.792   4.236  0.4723  0.1341  0.0938
  719BF       F10595   2.435   2.972   4.378 -0.6901  0.0681  0.5421
  720BF       B10596   2.778   1.149   0.386 -0.1502  0.7964 -0.4883
  720BF       F10597   2.647   1.113   0.375  0.6598  0.2165  0.7888
  720BF       F10598   2.854   1.028   0.405  0.0494  0.2593 -0.1378
  720BF       F10599   2.812   1.213   0.269  0.1731 -0.2261 -0.1280
  720BF       F10600   2.801   1.224   0.498 -0.3852  0.2124 -0.2125
  721BF       B10601   0.180   3.628   0.837  0.0265  0.7776 -0.1878
  721BF       F10602   0.052   3.584   0.874  0.4359 -0.0138  0.3038
  721BF       F10603   0.258   3.614   0.953 -0.4240 -0.2101  0.0019
  721BF       F10604   0.217   3.549   0.731  0.0755  0.1267 -0.2361
  721BF       F10605   0.172   3.758   0.797 -0.3234  0.2057  0.1450
  722BF       B10606   3.775   3.492   1.928  0.1284 -0.0185 -0.9114
  722BF       F10607   3.784   3.471   1.792  0.3365  0.4285  0.3987
  722BF       F10608   3.875   3.582   1.970  0.7311  0.0312  0.5835
  722BF       F10609   3.656   3.553   1.960  0.0431 -0.3414 -0.3485
  722BF       F10610   3.795   3.376   2.000 -0.7479  0.1825 -0.4911
  723BF       B10611   2.259   2.874   3.035 -0.5747  0.4593  1.4547
  723BF       F10612   2.204   2.750   3.047 -0.0759  0.3446 -0.0180
  723BF       F10613   2.167   2.968   3.063  0.6349  0.3370  0.0388
  723BF       F10614   2.359   2.885   3.127 -0.0258  0.3319  0.1998
  723BF       F10615   2.313   2.898   2.906 -0.0952  0.5997  0.2574
  724BF       B10616   3.975   3.889   1.432  0.2454  0.3519 -0.4530
  724BF       F10617   3.888   3.788   1.403 -0.0523  0.0116  0.1070
  724BF       F10618   3.995   3.961   1.316  0.6134 -0.3057 -0.3248
  724BF       F10619   3.914   3.969   1.527  0.0364 -0.0413  0.4277
  724BF       F10620   4.090   3.839   1.486  0.4734  0.7861 -0.0069
  725BF       B10621   1.115   2.289   3.715  0.8700  0.7876  0.4797
  725BF       F10622   1.017   2.189   3.725  0.1364  0.5444 -0.2718
  725BF       F10623   1.107   2.351   3.594  0.2319 -0.1134  0.1138
  725BF       F10624   1.090   2.389   3.808 -0.1323 -0.3006 -0.3639
  725BF       F10625   1.245   2.239   3.731 -0.2582  0.3961  0.4332
  726BF       B10626   4.068   2.071   3.441  0.1812  0.5362 -0.2200
  726BF       F10627   4.176   2.115   3.364 -0.3909  0.6494  0.5801
  726BF       F10628   4.084   2.105   3.576 -0.4082  0.7113  0.8534
  726BF       F10629   3.949   2.129   3.403  0.4624 -0.0133 -0.4128
  726BF       F10630   4.053   1.932   3.439 -0.6461 -0.4987  0.9080
  727BF       B10631   0.809   1.740   3.311  0.7202  0.6188 -0.8690
  727BF       F10632   0.801   1.619   3.235 -0.1045 -0.1437  0.5037
  727BF       F10633   0.688   1.766   3.377  0.2191 -0.2117 -0.3216
  727BF       F10634   0.910   1.716   3.402 -0.7431  0.2169  0.6247
  727BF       F10635   0.835   1.845   3.225 -0.1472 -0.4367  0.3063
  728BF       B10636   4.449   2.883   0.765 -0.3296  0.5247  0.8322
  728BF       F10637   4.322   2.825   0.783 -0.4053 -0.1193 -0.2162
  728BF       F10638   4.434   3.023   0.787 -0.2988 -0.8679  0.5160
  728BF       F10639   4.537   2.827   0.851 -0.0671  0.0738  0.1622
  728BF       F10640   4.487   2.854   0.635 -0.0933  0.0882  0.1168
  729BF       B10641   2.892   4.626   3.983  0.3461 -0.1296  0.0717
  729BF       F10642   2.930   4.526   4.071 -0.1982  0.4032 -0.0151
  729BF       F10643   2.887   4.582   3.848 -0.1555 -0.8231  0.2246
  729BF       F10644   2.762   4.664   4.023 -0.7152  0.1842 -0.1156
  729BF       F10645   2.972   4.740   3.992 -0.1138  0.2750 -0.4241
  730BF       B10646   3.713   4.742   4.825 -0.2233 -0.1609 -0.0350
  730BF       F10647   3.805   4.639   4.822  0.0994  0.1675 -0.4957
  730BF       F10648   3.638   4.745   4.703 -0.2818 -0.0588  0.2243
  730BF       F10649   3.627   4.717   4.926  0.0441 -0.3613  0.1971
  730BF       F10650   3.783   4.860   4.852 -0.0287  0.2872  0.0856
  731BF       B10651   3.016   0.738   2.806 -0.5038  0.4655 -0.2559
  731BF       F10652   3.034   0.812   2.694 -0.3195  0.1319  0.2502
  731BF       F10653   3.064   0.806   2.923  0.0896  0.3695 -0.0025
  731BF       F10654   2.878   0.710   2.812 -0.4184  0.2098  0.6815
  731BF       F10655   3.091   0.620   2.786  0.0210 -0.8225 -0.7040
  732BF       B10656   2.373   0.815   2.799 -0.0361  0.0547  0.7787
  732BF       F10657   2.330   0.807   2.927  0.2915  0.2869  0.1402
  732BF       F10658   2.493   0.747   2.774 -0.0887  0.1808  0.4187
  732BF       F10659   2.274   0.768   2.712 -0.1775 -0.1276  0.0630
  732BF       F10660   2.404   0.951   2.767  0.3365  0.2389  0.2082
  733BF       B10661   2.456   4.881   3.708 -0.6086  0.2509  0.1865
  733BF       F10662   2.473   4.822   3.830  0.1206 -0.0559  0.5200
  733BF       F10663   2.361   4.984   3.717  0.3726  0.1254  0.3657
  733BF       F10664   2.580   4.908   3.656 -0.1333 -0.2506 -0.0841
  733BF       F10665   2.400   4.773   3.631 -0.1531 -0.1743 -0.4305
  734BF       B10666   3.038   3.505   2.915  0.2687  0.1968 -1.2562
  734BF       F10667   2.964   3.435   3.014 -0.0006  0.1368  0.1712
  734BF       F10668   3.146   3.418   2.882  0.3652  0.1791  0.3784
  734BF       F10669   2.963   3.515   2.803  0.2187  0.2947  0.0545
  734BF       F10670   3.083   3.628   2.961  0.2200 -0.1804  0.6837
  735BF       B10671   4.219   1.337   0.269  0.6054  0.0265 -0.0499
  735BF       F10672   4.240   1.241   0.374 -0.2210 -0.1574 -0.1990
  735BF       F10673   4.119   1.299   0.180 -0.1955 -0.0047  0.0347
  735BF       F10674   4.170   1.452   0.328 -0.0657  0.2617  0.0486
  735BF       F10675   4.334   1.360   0.195 -0.3217 -0.1906 -0.1951
  736BF       B10676   0.671   1.028   1.339  0.0540  0.2514  0.4799
  736BF       F10677   0.684   0.895   1.309 -0.2731 -0.1312 -0.1509
  736BF       F10678   0.546   1.050   1.392  0.1761 -0.5532  0.3826
  736BF       F10679   0.770   1.066   1.429 -0.1841 -0.0499 -0.2441
  736BF       F10680   0.688   1.097   1.219  0.1804  0.6687 -0.4311
  737BF       B10681   0.547   0.349   2.919 -0.0356 -0.0656 -0.5352
  737BF       F10682   0.648   0.380   3.016 -0.3150 -0.0981  0.0188
  737BF       F10683   0.551   0.444   2.815 -0.5235 -0.3553  0.1561
  737BF       F10684   0.566   0.225   2.866 -0.3896 -0.3154 -0.0139
  737BF       F10685   0.423   0.355   2.976  0.0854 -0.0012 -0.1267
  738BF       B10686   2.209   3.564   4.410 -0.1495  0.2256  0.5012
  738BF       F10687   2.187   3.433   4.383  0.0291 -0.3960 -0.0591
  738BF       F10688   2.183   3.598   4.544  0.3588  0.5842  0.4728
  738BF       F10689   2.343   3.594   4.391 -0.3041  0.1095 -0.6619
  738BF       F10690   2.138   3.638   4.318  0.0161  0.2456 -0.4656
  739BF       B10691   4.969   1.095   1.129  0.0312  0.4770 -0.3904
  739BF       F10692   4.998   1.125   0.996  0.6098  0.2010 -0.2907
  739BF       F10693   4.942   0.959   1.153 -0.8083  0.6360  0.2917
  739BF       F10694   5.075   1.133   1.201  0.3704 -0.1143 -0.6212
  739BF       F10695   4.857   1.159   1.157  0.3056  0.0062  0.5010
  740BF       B10696   3.010   3.687   0.425 -0.2251 -0.3842 -0.4562
  740BF       F10697   3.091   3.577   0.440  1.1827 -0.7046  0.1973
  740BF       F10698   2.922   3.653   0.321  0.1383  0.0637 -0.1154
  740BF       F10699   2.949   3.699   0.543 -0.1548 -0.2254 -0.0105
  740BF       F10700   3.070   3.807   0.389  0.1248 -0.7208 -0.4152
  741BF       B10701   2.804   3.807   4.660  1.0715  0.5785  0.6702
  741BF       F10702   2.712   3.779   4.561 -0.8883 -0.1230  0.7198
  741BF       F10703   2.929   3.843   4.602  0.8809  0.3908  0.4622
  741BF       F10704   2.750   3.906   4.742  0.2032 -1.0201  0.0848
  741BF       F10705   2.816   3.690   4.730  0.3021 -0.1117 -0.5146
  742BF       B10706   4.831   3.281   2.044  0.1522  0.3376 -0.7480
  742BF       F10707   4.917   3.387   2.040  0.2820  0.0599 -0.4451
  742BF       F10708   4.709   3.311   2.099 -0.1515 -0.1078  0.0836
  742BF       F10709   4.805   3.256   1.909  0.2909 -0.0619  0.1486
  742BF       F10710   4.891   3.172   2.106  0.0477  0.4727  0.3744
  743BF       B10711   4.302   4.285   1.721 -0.2549 -0.4415 -0.7342
  743BF       F10712   4.347   4.350   1.610 -0.4103  0.0643  0.4231
  743BF       F10713   4.266   4.379   1.815 -0.2144  0.2501 -0.4548
  743BF       F10714   4.183   4.212   1.688  0.5215 -0.2495 -0.0317
  743BF       F10715   4.395   4.198   1.774 -0.4611  0.4177  0.1223
  744BF       B10716   4.514   0.950   1.550  0.2772 -0.3609  0.2657
  744BF       F10717   4.473   1.052   1.468  0.6120 -0.1245  0.3232
  744BF       F10718   4.645   0.909   1.535  1.0641 -0.0397  0.4361
  744BF       F10719   4.507   1.001   1.679  0.1558  0.1636  0.0979
  744BF       F10720   4.437   0.834   1.531 -0.2654  0.5142 -0.2890
  745BF       B10721   3.539   1.334   1.307 -0.6305  0.6729  0.1207
  745BF       F10722   3.480   1.442   1.251 -0.1736  0.4115  0.1366
  745BF       F10723   3.666   1.311   1.259  0.8213 -0.1629 -0.0347
  745BF       F10724   3.548   1.334   1.444  0.2218  0.3863  0.3641
  745BF       F10725   3.463   1.224   1.271 -0.2669 -0.0043  0.3160
  746BF       B10726   3.676   2.690   4.024  1.2703 -0.4188 -0.1322
  746BF       F10727   3.601   2.747   4.131  0.2880  0.4695  0.0569
  746BF       F10728   3.808   2.680   4.067 -0.0268  0.4786 -0.5453
  746BF       F10729   3.616   2.569   3.994 -0.4818  0.2851  0.6026
  746BF       F10730   3.678   2.786   3.916 -0.3540  0.3033  0.4197
  747BF       B10731   1.320   4.452   4.705 -0.1048 -0.2226  0.0856
  747BF       F10732   1.346   4.539   4.604  0.3010  0.7194  0.4593
  747BF       F10733   1.389   4.494   4.823 -0.3096  0.0279 -0.2511
  747BF       F10734   1.187   4.438   4.728  0.1889  0.1776 -0.2906
  747BF       F10735   1.361   4.327   4.656 -0.2428  0.0808  0.6173
  748BF       B10736   4.558   4.873   0.955  0.4420 -0.3436  0.1134
  748BF       F10737   4.579   4.962   1.056 -0.7791  0.4225  0.0798
  748BF       F10738   4.506   4.755   1.015  0.5317  0.0633  0.5912
  748BF       F10739   4.471   4.922   0.862 -0.0758  0.0605 -0.1571
  748BF       F10740   4.676   4.843   0.891 -0.0096  0.0618 -0.4847
  749BF       B10741   3.148   0.821   4.923 -0.2544  0.2221 -0.5696
  749BF       F10742   3.136   0.685   4.951 -0.2925  0.4325 -0.2331
  749BF       F10743   3.151   0.828   4.788  0.3705 -0.4382 -0.2766
  749BF       F10744   3.033   0.878   4.979 -0.2135  0.5663  0.6002
  749BF       F10745   3.260   0.882   4.977 -0.3698  0.5464 -0.3943
  750BF       B10746   3.375   0.375   1.546 -0.1868 -0.2738  0.8322
  750BF       F10747   3.319   0.311   1.437 -0.1906 -0.6653  0.0922
  750BF       F10748   3.418   0.502   1.509 -0.0241 -0.1399  0.0196
  750BF       F10749   3.276   0.387   1.647  0.2877 -0.1911  0.5749
  750BF       F10750   3.489   0.305   1.584  0.2162 -0.2277 -0.9136
  751BF       B10751   0.387   1.953   4.860 -0.1993 -0.1481  0.1442
  751BF       F10752   0.378   1.948   4.723  0.3322 -0.3612 -0.4530
  751BF       F10753   0.261   1.921   4.915 -0.0535  0.1265 -0.5059
  751BF       F10754   0.480   1.854   4.887  1.1891 -0.1568 -0.3643
  751BF       F10755   0.429   2.077   4.908 -0.3001  0.0330 -0.1789
  752BF       B10756   2.595   4.731   1.751  0.5276  0.4625 -0.2091
  752BF       F10757   2.514   4.813   1.822  0.2599  0.0483  0.3253
  752BF       F10758   2.602   4.778   1.622 -0.4323 -0.0741  0.0717
  752BF       F10759   2.715   4.728   1.813  0.1302 -0.1599  0.1688
  752BF       F10760   2.545   4.600   1.745  0.0626  0.3999  0.6497
  753BF       B10761   1.961   0.812   4.293 -0.2156 -0.1198  0.0376
  753BF       F10762   1.855   0.729   4.275 -0.6132  0.3924 -0.5152
  753BF       F10763   1.937   0.936   4.233  0.0093  0.1579 -0.1528
  753BF       F10764   1.969   0.824   4.433  0.2800 -0.0439  0.4242
  753BF       F10765   2.074   0.752   4.246 -0.0293  0.1363  0.1615
  754BF       B10766   4.579   2.605   0.209 -0.8351 -1.1591 -0.3503
  754BF       F10767   4.475   2.681   0.267 -0.0692  0.3811 -0.2390
  754BF       F10768   4.591   2.642   0.074  0.0814  0.0511  0.2258
  754BF       F10769   4.703   2.615   0.275 -0.0349  0.1687  0.1808
  754BF       F10770   4.540   2.473   0.201 -0.3665  0.2097 -0.3471
  755BF       B10771   1.683   2.955   2.089 -0.5409 -0.4546  0.3112
  755BF       F10772   1.642   2.977   1.958  0.0121  0.1524  0.0603
  755BF       F10773   1.569   2.981   2.161  0.0237 -0.2299 -0.1444
  755BF       F10774   1.727   2.824   2.112  0.1013  0.0820  0.1480
  755BF       F10775   1.788   3.039   2.112  0.7078  0.1720  0.1440
  756BF       B10776   0.170   4.151   1.723 -0.4000 -0.4049  0.1146
  756BF       F10777   0.144   4.088   1.608  0.4172 -0.3363  0.2788
  756BF       F10778   0.287   4.226   1.719 -0.4700  0.1294  0.0208
  756BF       F10779   0.059   4.233   1.747  0.3375 -0.2439  0.0831
  756BF       F10780   0.185   4.047   1.821 -0.0569  0.2001  0.4630
  757BF       B10781   4.803   0.179   1.535  0.1112  0.5015 -0.7636
  757BF       F10782   4.892   0.076   1.538 -0.4507  0.5405  0.5472
  757BF       F10783   4.867   0.281   1.469 -0.5099  0.2536 -0.3737
  757BF       F10784   4.692   0.147   1.463 -0.2340 -0.0635  0.0069
  757BF       F10785   4.779   0.212   1.670 -0.0432 -0.5991  0.4407
  758BF       B10786   2.256   2.305   4.310 -0.3256 -0.0362 -0.4608
  758BF       F10787   2.166   2.329   4.211  0.0966  0.0027  0.0984
  758BF       F10788   2.243   2.400   4.407 -0.0493 -0.1322 -0.5191
  758BF       F10789   2.234   2.169   4.360 -0.3717  0.0004  0.0036
  758BF       F10790   2.383   2.324   4.248 -0.2827  0.1043 -0.2361
  759BF       B10791   3.045   4.008   1.643  0.0555 -0.3714  0.0755
  759BF       F10792   3.152   3.917   1.660  0.8685  0.2939 -0.1858
  759BF       F10793   3.022   4.085   1.751 -0.5716 -0.2937 -0.2649
  759BF       F10794   3.067   4.091   1.536 -0.3847  0.0722 -0.7425
  759BF       F10795   2.933   3.940   1.611  0.2125 -0.0895 -0.2981
  760BF       B10796   0.521   1.006   1.907  0.1821 -0.3712 -0.9204
  760BF       F10797   0.559   0.872   1.882  0.0712 -0.0161 -0.7574
  760BF       F10798   0.578   1.095   1.817  0.3171  0.1530  0.2782
  760BF       F10799   0.381   1.014   1.915 -0.4145  0.2506  0.2973
  760BF       F10800   0.569   1.033   2.034 -0.2101 -0.5046 -0.1291
  761BF       B10801   4.964   1.542   0.258  0.1467 -0.0563 -0.4855
  761BF       F10802   5.090   1.515   0.310  0.1376  0.6473 -0.1274
  761BF       F10803   4.982   1.610   0.136  0.0947 -0.1333 -0.3085
  761BF       F10804   4.886   1.423   0.229  0.0661 -0.2770  0.3416
  761BF       F10805   4.891   1.620   0.349  0.1091 -0.1824 -0.1491
  762BF       B10806   0.840   2.232   0.215 -0.1188 -0.1107 -0.2853
  762BF       F10807   0.721   2.223   0.143  0.2260 -0.0887  0.0854
  762BF       F10808   0.871   2.127   0.310  0.3856 -0.1343  0.3722
  762BF       F10809   0.950   2.244   0.125 -0.0210  0.3778 -0.3062
  762BF       F10810   0.823   2.355   0.285 -0.2726 -0.1139 -0.0972
  763BF       B10811   2.296   1.642   3.833 -0.0172 -0.4151  0.2752
  763BF       F10812   2.409   1.696   3.771  0.4497 -0.2401  0.7737
  763BF       F10813   2.216   1.576   3.746  0.5881  0.3868  0.2134
  763BF       F10814   2.334   1.556   3.939  0.5075 -0.8440 -0.2846
  763BF       F10815   2.233   1.755   3.882 -0.1147  0.2992 -0.1434
  764BF       B10816   1.018   4.892   3.631 -0.4319  0.4340 -0.3924
  764BF       F10817   1.066   4.763   3.600 -0.2634 -0.7099 -0.4269
  764BF       F10818   0.885   4.909   3.594 -0.3753  0.0594 -0.1249
  764BF       F10819   1.026   4.904   3.764  0.1978 -0.2757  0.1840
  764BF       F10820   1.092   4.999   3.590 -0.4656  0.1495  0.8154
  765BF       B10821   2.014   4.389   4.442  0.4172 -0.4962  0.6730
  765BF       F10822   2.045   4.517   4.473  0.1264  0.0604  0.1934
  765BF       F10823   1.876   4.379   4.427 -0.3070  0.1462 -0.2935
  765BF       F10824   2.088   4.360   4.322  0.3049  0.1965 -0.0774
  765BF       F10825   2.059   4.306   4.544 -0.3512  0.1707 -0.4442
  766BF       B10826   0.603   2.704   1.417  0.3116 -0.0182  0.3279
  766BF       F10827   0.703   2.771   1.483 -0.2107  0.3252 -0.2130
  766BF       F10828   0.645   2.577   1.382 -0.2109 -0.3051 -0.1157
  766BF       F10829   0.507   2.681   1.516 -0.2875 -0.4100  0.0344
  766BF       F10830   0.557   2.779   1.310 -0.1339 -0.3577 -0.5512
  767BF       B10831   1.320   2.451   1.048  0.4151 -0.6565  0.0976
  767BF       F10832   1.192   2.390   1.031 -0.5225 -0.3562 -0.0032
  767BF       F10833   1.364   2.493   0.925 -0.0629  0.1919  0.3182
  767BF       F10834   1.305   2.564   1.129 -0.6632  0.4176  0.0738
  767BF       F10835   1.414   2.366   1.105  0.7019 -0.3315 -0.2123
  768BF       B10836   4.498   2.220   0.940  0.2533 -0.0823  0.5336
  768BF       F10837   4.378   2.271   0.900  0.3383  0.5336  0.0193
  768BF       F10838   4.510   2.237   1.077 -0.0238 -0.2343  0.3582
  768BF       F10839   4.518   2.091   0.892 -0.1420 -0.2030  0.0976
  768BF       F10840   4.591   2.299   0.877 -0.1821  0.1159 -0.1000
  769BF       B10841   0.863   2.873   4.760  0.8649  0.4510 -0.2237
  769BF       F10842   0.969   2.898   4.840  0.5568  0.0547 -0.5476
  769BF       F10843   0.879   2.914   4.632 -0.2329 -0.2124  0.0907
  769BF       F10844   0.846   2.735   4.758  0.5727  0.0252 -0.2100
  769BF       F10845   0.750   2.937   4.816 -0.4512  0.0775  0.8104
  770BF       B10846   0.033   3.713   0.067 -0.0323 -0.1420 -0.6797
  770BF       F10847  -0.048   3.623   0.134  0.0205  0.4682 -0.7260
  770BF       F10848  -0.037   3.763  -0.041 -0.5883  0.3619  0.2116
  770BF       F10849   0.080   3.818   0.152 -0.6068  0.2388 -0.1284
  770BF       F10850   0.136   3.637   0.021 -0.1651  0.1534  0.1030
  771BF       B10851   4.806   2.356   4.620 -0.1033 -0.9061 -0.2576
  771BF       F10852   4.689   2.411   4.571  0.0100  0.0094 -0.1848
  771BF       F10853   4.783   2.281   4.732  0.0993 -0.1992  0.1787
  771BF       F10854   4.866   2.285   4.513 -0.1721 -0.0487 -0.1923
  771BF       F10855   4.884   2.469   4.658  0.3199 -0.5062  0.7785
  772BF       B10856   0.119   1.664   3.521  0.0013 -0.3800  0.0507
  772BF       F10857   0.216   1.711   3.607 -0.1465 -0.1019 -0.6503
  772BF       F10858   0.106   1.521   3.527 -0.0829 -0.6236 -0.4127
  772BF       F10859  -0.002   1.719   3.555 -0.2597 -0.4423 -0.0854
  772BF       F10860   0.154   1.696   3.389 -0.4418  0.1621  0.7387
  773BF       B10861   3.113   4.903   0.121  0.6889  0.3003 -0.3774
  773BF       F10862   3.193   4.905   0.240  0.3745 -0.3631 -0.6383
  773BF       F10863   3.191   4.883   0.010 -0.1414 -0.2825  0.0649
  773BF       F10864   3.030   4.792   0.143  0.2313  0.5790  0.0484
  773BF       F10865   3.048   5.018   0.106  0.4497 -0.5548  0.0537
  774BF       B10866   1.391   4.832   3.005 -0.5906  0.4035  0.8486
  774BF       F10867   1.463   4.771   3.108  0.3137 -0.1970 -0.0565
  774BF       F10868   1.296   4.900   3.079  0.1786  0.4284  0.1027
  774BF       F10869   1.468   4.918   2.929 -0.2586 -0.0815  0.0728
  774BF       F10870   1.320   4.740   2.923 -0.1467  0.1765 -0.1674
  775BF       B10871   1.801   3.789   4.071 -0.0635  0.2247  0.3088
  775BF       F10872   1.907   3.746   3.987  0.3283 -0.0481 -0.1434
  775BF       F10873   1.872   3.845   4.174  0.4548  0.2048 -0.3018
  775BF       F10874   1.722   3.886   4.004  0.4055  0.1732  0.0566
  775BF       F10875   1.718   3.684   4.111 -0.5117  0.1735 -0.6628
  776BF       B10876   0.338   2.877   2.498 -0.0592 -0.3646  0.0789
  776BF       F10877   0.211   2.836   2.448  0.0085  0.7031 -0.1697
  776BF       F10878   0.326   2.893   2.633  0.3326  0.0233 -0.0619
  776BF       F10879   0.445   2.795   2.475  0.5491 -0.0446 -0.0817
  776BF       F10880   0.377   3.004   2.447  0.0673 -0.3515  0.2747
  777BF       B10881   1.466   3.453   2.455 -0.1261 -0.5469  0.0832
  777BF       F10882   1.495   3.322   2.451  0.0087 -0.5017  0.0990
  777BF       F10883   1.372   3.468   2.555 -0.1364 -0.0744 -0.1904
  777BF       F10884   1.591   3.508   2.476 -0.1789  0.3945  0.1394
  777BF       F10885   1.417   3.505   2.339  0.2811  0.3088 -0.3280
  778BF       B10886   3.407   2.096   4.992  0.4030  0.4521 -0.0069
  778BF       F10887   3.422   1.971   5.050 -0.1091  0.1002 -0.0247
  778BF       F10888   3.486   2.191   5.057 -0.1020  0.0910  0.4469
  778BF       F10889   3.451   2.097   4.861  0.1025  0.4503  0.0183
  778BF       F10890   3.269   2.140   4.993  0.1539  0.6104 -0.1794
  779BF       B10891   3.257   4.478   3.525 -0.6705  0.0637 -0.1746
  779BF       F10892   3.133   4.437   3.471  0.2011 -0.1602  0.0121
  779BF       F10893   3.357   4.496   3.424  0.1060 -0.2486  0.1802
  779BF       F10894   3.248   4.602   3.588  0.2893 -0.2269 -0.1326
  779BF       F10895   3.294   4.377   3.622 -0.5792  0.1016 -0.1666
  780BF       B10896   2.438   3.098   0.596 -0.4862 -0.6482  0.5772
  780BF       F10897   2.400   3.225   0.543  0.0324 -0.1242  0.5634
  780BF       F10898   2.567   3.064   0.539 -0.0834 -0.6229 -0.2167
  780BF       F10899   2.459   3.107   0.727 -0.2384  0.0971  0.6342
  780BF       F10900   2.337   3.003   0.572 -0.3164  0.8069 -0.5502
  781BF       B10901   0.488   1.022   4.078 -0.4397  0.1501 -0.1079
  781BF       F10902   0.387   0.978   3.992 -0.1275 -0.1063 -0.0233
  781BF       F10903   0.573   1.107   4.006  0.2910  0.5319 -0.6025
  781BF       F10904   0.440   1.081   4.190 -0.1060  0.0555 -0.2806
  781BF       F10905   0.556   0.906   4.119  0.0792  0.1469  0.3044
  782BF       B10906   1.388   0.665   0.239  0.0821 -0.3121  0.6397
  782BF       F10907   1.362   0.590   0.123 -0.0433 -0.0166  0.3221
  782BF       F10908   1.460   0.607   0.336  0.1441  0.4322 -0.0160
  782BF       F10909   1.433   0.792   0.210  0.0938 -0.3190  0.3994
  782BF       F10910   1.261   0.690   0.287 -0.0849  0.1491 -0.0249
  783BF       B10911   3.080   2.733   2.984 -0.4521  0.1216  0.4448
  783BF       F10912   2.991   2.699   3.089 -0.0246 -0.0405 -0.1381
  783BF       F10913   3.216   2.749   3.031  0.1700  0.1442  0.1092
  783BF       F10914   3.069   2.627   2.891  0.9672 -0.0543 -0.1908
  783BF       F10915   3.040   2.852   2.928 -0.0449  0.1219 -0.0245
  784BF       B10916   4.800   0.195   0.349 -0.3348  0.4564  1.0123
  784BF       F10917   4.865   0.317   0.333  0.4173 -0.0602 -0.4730
  784BF       F10918   4.879   0.081   0.333 -0.1036  0.6652 -0.2892
  784BF       F10919   4.746   0.196   0.476  0.2601  0.3925 -0.2942
  784BF       F10920   4.695   0.185   0.255  0.0138 -0.0041  0.1766
  785BF       B10921   3.828   1.833   4.108  0.0075  0.4426 -0.6253
  785BF       F10922   3.914   1.943   4.098  0.2160 -0.0352  0.1655
  785BF       F10923   3.725   1.854   4.023 -0.5291 -0.2191 -0.2092
  785BF       F10924   3.898   1.728   4.058 -0.9385  0.0494  0.0939
  785BF       F10925   3.792   1.817   4.243 -0.0742 -0.3857 -0.0086
  786BF       B10926   4.269   0.849   2.021  1.1851 -0.3762  0.8159
  786BF       F10927   4.349   0.922   2.109 -0.3364  0.5228  0.1456
  786BF       F10928   4.141   0.821   2.081  0.1764 -0.1567 -0.1206
  786BF       F10929   4.247   0.922   1.902 -0.1967  0.2895  0.0666
  786BF       F10930   4.328   0.729   1.986 -0.3139 -0.3023 -0.1053
  787BF       B10931   0.964   4.361   3.457 -0.2468  0.5805 -0.3059
  787BF       F10932   0.945   4.286   3.566 -0.5603  0.5605 -0.5305
  787BF       F10933   0.888   4.478   3.453  0.2630 -0.0410  0.2322
  787BF       F10934   1.099   4.395   3.446  0.3351  0.4040  0.0450
  787BF       F10935   0.920   4.278   3.355 -0.1436 -0.5031 -0.2932
  788BF       B10936   4.817   2.440   2.295  0.1891 -0.6043 -0.1023
  788BF       F10937   4.918   2.464   2.202  0.6700  0.1856 -0.2850
  788BF       F10938   4.798   2.566   2.363  0.1107  0.2603 -0.0603
  788BF       F10939   4.701   2.386   2.238 -0.3322  0.2859  0.0196
  788BF       F10940   4.851   2.344   2.381  0.3279 -0.0643  0.1662
  789BF       B10941   2.529   0.534   0.919  1.0233  0.2495 -0.2725
  789BF       F10942   2.526   0.619   0.808  0.0949  0.3457  0.3403
  789BF       F10943   2.615   0.587   1.010 -0.6385 -0.0959 -0.3922
  789BF       F10944   2.401   0.526   0.967  0.2796 -0.3948  0.3494
  789BF       F10945   2.574   0.409   0.881  0.0149 -0.3515 -0.0306
  790BF       B10946   2.584   0.517   3.324  0.3931  0.9868 -0.0210
  790BF       F10947   2.563   0.571   3.445  0.0487  0.3227 -0.0794
  790BF       F10948   2.628   0.610   3.232  0.1170 -0.1569 -0.3801
  790BF       F10949   2.675   0.410   3.333 -0.2091 -0.2973 -0.2807
  790BF       F10950   2.459   0.469   3.285 -0.0531  0.0715 -0.1682
  791BF       B10951   2.702   4.353   0.610 -0.0455  0.3268 -0.5297
  791BF       F10952   2.639   4.469   0.657  0.0338  0.0679  0.4344
  791BF       F10953   2.692   4.243   0.697 -0.3250 -0.2485  0.3703
  791BF       F10954   2.645   4.317   0.488  0.1242  0.2605  0.1621
  791BF       F10955   2.838   4.379   0.574  0.0560 -0.8035  0.0916
  792BF       B10956   3.257   1.166   2.099 -1.0020  0.4951 -0.0233
  792BF       F10957   3.130   1.122   2.112  1.1858  0.2136  0.0135
  792BF       F10958   3.275   1.257   1.995 -0.0366 -0.2085  0.0310
  792BF       F10959   3.297   1.236   2.213  0.1421 -0.6615  0.3265
  792BF       F10960   3.339   1.058   2.081  0.4071  0.5999  0.3095
  793BF       B10961   2.788   3.351   1.280 -0.3284 -0.0195  0.8070
  793BF       F10962   2.874   3.441   1.334 -0.0900  0.4282  0.1878
  793BF       F10963   2.703   3.297   1.375 -0.0528  0.0807  0.2830
  793BF       F10964   2.703   3.413   1.190  0.0139 -0.7607  0.1126
  793BF       F10965   2.860   3.251   1.212 -0.5703  0.1563 -0.0554
  794BF       B10966   1.073   3.982   0.549  0.9857  0.3438  0.4764
  794BF       F10967   1.028   4.088   0.470  0.1026  0.1875  0.0309
  794BF       F10968   1.168   4.013   0.642 -0.2328 -0.3219  0.6680
  794BF       F10969   0.965   3.943   0.625  0.1371 -0.1838 -0.5932
  794BF       F10970   1.110   3.877   0.468  0.2489 -0.6684 -0.4318
  795BF       B10971   2.825   2.128   3.979 -0.6408 -0.8088 -0.6607
  795BF       F10972   2.949   2.197   3.978 -0.5372  0.2770 -0.2574
  795BF       F10973   2.851   1.998   3.943  0.3967  0.9052  0.4379
  795BF       F10974   2.777   2.130   4.110  0.2073  0.0749 -0.2235
  795BF       F10975   2.741   2.192   3.887 -0.1804 -0.1654 -0.6270
  796BF       B10976   0.837   0.763   4.761  0.2775 -1.1573  0.0035
  796BF       F10977   0.896   0.880   4.810 -0.2810  0.2287  0.0856
  796BF       F10978   0.743   0.717   4.855 -0.2186 -0.5213  0.0941
  796BF       F10979   0.774   0.795   4.641  0.1276 -0.7208  0.3585
  796BF       F10980   0.923   0.655   4.737 -0.0683 -0.4132  0.0440
  797BF       B10981   4.182   3.017   0.282  0.4711 -0.0829 -0.0117
  797BF       F10982   4.242   3.088   0.184  0.4948 -0.2478  0.3555
  797BF       F10983   4.150   3.107   0.382  0.1305  0.2570 -0.3736
  797BF       F10984   4.065   2.961   0.233  0.4890  0.0966  0.2127
  797BF       F10985   4.268   2.919   0.322  0.1219  0.0736 -0.1914
  798BF       B10986   1.773   0.825   0.484  0.3497 -0.8314  0.5109
  798BF       F10987   1.689   0.749   0.556  0.3265 -0.2485 -0.0133
  798BF       F10988   1.742   0.959   0.510  0.2116 -0.5104  0.2723
  798BF       F10989   1.906   0.801   0.527  0.3902 -0.5913 -0.4151
  798BF       F10990   1.773   0.794   0.345  0.4876 -0.5199  0.2524
  799BF       B10991   3.338   1.361   4.282  0.2025  0.0665 -0.1042
  799BF       F10992   3.411   1.455   4.207 -0.2204  0.2609  0.2834
  799BF       F10993   3.266   1.423   4.382 -0.0597  0.1035 -0.1641
  799BF       F10994   3.246   1.297   4.198  0.1215  0.2071  0.4169
  799BF       F10995   3.425   1.269   4.337 -0.3637  0.4443  0.2860
  800BF       B10996   3.016   1.427   0.005  0.0229 -0.6995 -1.3332
  800BF       F10997   2.943   1.312  -0.011  0.0504  0.2216  0.6005
  800BF       F10998   2.970   1.502   0.111  0.7048  0.0670  0.1198
  800BF       F10999   3.153   1.399   0.031 -0.1349 -0.2708  0.5981
  800BF       F11000   2.999   1.497  -0.115  0.0104 -0.6706 -0.5898
  801BF       B11001   1.564   3.034   3.337 -0.2371 -0.4172 -0.0535
  801BF       F11002   1.427   3.029   3.301  0.0815  0.1097 -0.4796
  801BF       F11003   1.633   3.153   3.304  0.5768  0.0481 -0.5406
  801BF       F11004   1.576   3.002   3.474 -0.3780 -0.1889 -0.1077
  801BF       F11005   1.634   2.935   3.265 -0.5880  0.4852 -0.9018
  802BF       B11006   4.846   3.253   0.577  0.1555  0.0038 -0.4131
  802BF       F11007   4.966   3.206   0.630  0.3138  0.1300  0.5674
  802BF       F11008   4.854   3.224   0.444  0.3585  0.0827  0.5102
  802BF       F11009   4.743   3.189   0.647  0.2571  0.5790 -0.1959
  802BF       F11010   4.834   3.392   0.599 -0.3637  0.4112 -0.1168
  803BF       B11011   0.667   4.122   1.209 -0.0625 -0.3767 -0.0776
  803BF       F11012   0.532   4.088   1.213 -0.2199 -0.0298  0.0471
  803BF       F11013   0.715   4.159   1.079  0.1053  0.4173  0.4803
  803BF       F11014   0.693   4.221   1.303 -0.5460 -0.5550  0.7741
  803BF       F11015   0.739   4.011   1.247 -0.1209  0.0922  0.5708
  804BF       B11016   4.120   0.284   4.640  0.0251  0.0177  0.5128
  804BF       F11017   4.026   0.192   4.599 -0.1150  0.6655 -0.2366
  804BF       F11018   4.198   0.237   4.739 -0.4812 -0.6105  0.6286
  804BF       F11019   4.194   0.316   4.532 -0.2378  0.6441  0.1541
  804BF       F11020   4.064   0.401   4.685 -0.5341  0.4978  0.3921
  805BF       B11021   4.478   0.881   3.349  0.2213 -0.6098  0.2209
  805BF       F11022   4.555   0.941   3.248 -0.1307 -0.0459  0.2785
  805BF       F11023   4.342   0.886   3.318 -0.3661 -0.1531  0.2212
  805BF       F11024   4.523   0.755   3.368  0.4510  0.3280  0.2783
  805BF       F11025   4.495   0.950   3.466  0.2212 -0.0392 -0.3173
  806BF       B11026   0.816   3.595   1.563  0.2156 -0.1426  0.0923
  806BF       F11027   0.731   3.695   1.519 -0.3416  0.4652  0.1714
  806BF       F11028   0.842   3.510   1.457  0.1917 -0.1748  0.5780
  806BF       F11029   0.940   3.645   1.614 -0.1945 -0.2612  0.3019
  806BF       F11030   0.750   3.523   1.663 -0.1531 -0.1062 -0.4673
  807BF       B11031   4.023   1.800   2.955  0.1826  0.3964 -0.7084
  807BF       F11032   3.969   1.852   2.840  0.6591  0.2429 -0.2370
  807BF       F11033   3.923   1.726   3.011 -0.7679 -0.7569 -0.3005
  807BF       F11034   4.121   1.717   2.906  0.2937 -0.5873 -0.1630
  807BF       F11035   4.080   1.899   3.040 -0.0415  0.5290 -0.2240
  808BF       B11036   2.600   1.295   4.259 -0.7661  0.1363 -0.7731
  808BF       F11037   2.637   1.429   4.251  0.3045  0.1618 -0.1480
  808BF       F11038   2.699   1.211   4.210 -0.3755  0.0232 -0.2796
  808BF       F11039   2.563   1.269   4.391 -0.3639 -0.2275 -0.0789
  808BF       F11040   2.487   1.279   4.181  0.0817  0.1343 -0.3515
  809BF       B11041   4.584   4.519   4.918  0.5232 -0.1756  0.2048
  809BF       F11042   4.484   4.612   4.931  0.0391  0.3132 -0.0426
  809BF       F11043   4.538   4.402   4.864 -0.3044  0.1434  0.4003
  809BF       F11044   4.685   4.567   4.832  0.1371  0.0594 -0.3463
  809BF       F11045   4.630   4.486   5.045  0.0156  0.3009  0.0909
  810BF       B11046   2.678   1.818   0.417  0.7214  0.2934  0.0088
  810BF       F11047   2.698   1.954   0.435 -0.0037 -0.3529  0.4078
  810BF       F11048   2.662   1.753   0.539 -0.2362 -0.2421 -0.4199
  810BF       F11049   2.563   1.808   0.342 -0.3404  0.0291 -0.0108
  810BF       F11050   2.794   1.784   0.354  0.3773  0.4771  0.0506
  811BF       B11051   3.156   0.555   3.952  0.4458  0.2547 -0.1720
  811BF       F11052   3.109   0.582   3.821 -0.0234 -0.6274 -0.2352
  811BF       F11053   3.179   0.678   4.011 -0.2668 -0.0230  0.5445
  811BF       F11054   3.060   0.485   4.031 -0.0206 -0.1545  0.6638
  811BF       F11055   3.271   0.475   3.968  0.0287 -0.3891 -0.0823
  812BF       B11056   2.323   2.805   3.679  0.1883 -0.7764 -0.7977
  812BF       F11057   2.318   2.911   3.595  1.0259  0.1285  0.5357
  812BF       F11058   2.277   2.837   3.806  0.0479 -0.3069  0.2722
  812BF       F11059   2.247   2.706   3.625 -0.6261  0.3835 -0.6363
  812BF       F11060   2.450   2.760   3.694  0.5367  0.4604 -0.2068
  813BF       B11061   0.910   3.210   1.129 -0.8869  0.0061 -0.3589
  813BF       F11062   1.001   3.147   1.043  0.1134 -0.1976 -0.0023
  813BF       F11063   0.809   3.270   1.054  0.4113  0.0483 -0.3135
  813BF       F11064   0.855   3.118   1.218  0.2145  0.9922 -0.3834
  813BF       F11065   0.974   3.308   1.207 -0.1697 -0.7572 -0.0353
  814BF       B11066   4.006   3.510   4.744 -0.7646  0.8386 -0.1598
  814BF       F11067   4.033   3.415   4.649 -0.1695  0.4494 -0.4527
  814BF       F11068   4.009   3.637   4.695  0.5073 -0.3324  0.4794
  814BF       F11069   3.885   3.474   4.791 -0.0977  0.1342 -0.3649
  814BF       F11070   4.104   3.503   4.848 -0.5748 -0.5350 -0.0105
  815BF       B11071   2.577   1.837   4.636 -0.7179  0.7788 -0.5990
  815BF       F11072   2.628   1.966   4.656 -0.2246 -0.7679 -0.2760
  815BF       F11073   2.578   1.788   4.506 -0.1501  0.6328 -0.4919
  815BF       F11074   2.646   1.753   4.728 -0.3708  0.1156  0.2457
  815BF       F11075   2.441   1.843   4.668 -0.4343  0.2395  0.0853
  816BF       B11076   0.156   2.849   1.077  0.4784 -0.3175  0.3949
  816BF       F11077   0.201   2.721   1.109 -0.2957  0.7702  0.8833
  816BF       F11078   0.227   2.949   1.140  0.1825 -0.9763 -0.3355
  816BF       F11079   0.170   2.871   0.941 -0.1943  0.2168  0.2495
  816BF       F11080   0.021   2.864   1.108 -0.0137  0.3209  0.2700
  817BF       B11081   0.504   3.121   1.775  0.2534  0.0793 -0.3870
  817BF       F11082   0.464   3.233   1.834 -0.4630 -0.2934 -0.4841
  817BF       F11083   0.401   3.029   1.766  0.6638 -0.2544 -0.0756
  817BF       F11084   0.544   3.159   1.647  0.0640  0.3754  0.1174
  817BF       F11085   0.614   3.063   1.839  0.0460  0.2226 -0.2526
  818BF       B11086   2.873   4.725   2.923  1.3342  0.0135 -0.0493
  818BF       F11087   2.830   4.838   2.996 -0.0766 -0.0441  0.5272
  818BF       F11088   2.821   4.611   2.987  0.0484  0.0666 -0.0697
  818BF       F11089   2.825   4.743   2.792  0.3508  0.4140 -0.4735
  818BF       F11090   3.015   4.714   2.920  0.1514  0.4946  0.1346
  819BF       B11091   3.019   1.523   3.732 -0.0753  0.0301  0.2464
  819BF       F11092   3.031   1.390   3.776 -0.1789 -0.0005  0.3667
  819BF       F11093   2.986   1.601   3.845 -0.1046  0.3265  0.4947
  819BF       F11094   3.136   1.565   3.678  0.2480  0.3155  0.1572
  819BF       F11095   2.915   1.536   3.640  0.2823  0.7026  0.6747
  820BF       B11096   4.186   2.721   2.594  0.1260 -0.4059  0.0070
  820BF       F11097   4.190   2.738   2.458 -0.2901  0.2650  0.4478
  820BF       F11098   4.128   2.598   2.617 -0.1948  0.0747 -0.0866
  820BF       F11099   4.311   2.728   2.652 -0.1395 -0.0947 -0.4039
  820BF       F11100   4.102   2.819   2.651  0.4284  0.1493 -0.4797
  821BF       B11101   2.680   4.050   2.190 -0.2412  0.3448 -0.6330
  821BF       F11102   2.783   4.085   2.103  0.3451  0.1751  0.2920
  821BF       F11103   2.612   4.161   2.240 -0.0596 -0.0440 -0.7442
  821BF       F11104   2.586   3.974   2.127  0.1586  0.1100 -0.2967
  821BF       F11105   2.739   3.984   2.300 -0.3991 -0.1136 -0.0591
  822BF       B11106   1.611   0.894   2.860  0.1248  0.5725  1.0333
  822BF       F11107   1.541   0.800   2.780 -0.5368 -0.0600 -0.1423
  822BF       F11108   1.514   0.984   2.888 -0.2082 -0.4371 -0.3834
  822BF       F11109   1.664   0.835   2.973  0.4829 -0.2054  0.1345
  822BF       F11110   1.710   0.957   2.793 -0.3358  0.3002  0.4400
  823BF       B11111   3.975   1.186   4.502 -0.4596 -0.0346  1.0720
  823BF       F11112   3.991   1.102   4.391 -0.3735  0.1804  0.0943
  823BF       F11113   4.066   1.292   4.498 -0.0989  0.0026 -0.3282
  823BF       F11114   3.844   1.230   4.499 -0.3139 -0.8212  0.6106
  823BF       F11115   4.003   1.116   4.618  0.2624 -0.0793  0.4296
  824BF       B11116   3.192   2.000   0.387 -0.0946 -0.4145 -0.0839
  824BF       F11117   3.083   1.906   0.377 -0.5844 -0.0255 -0.2067
  824BF       F11118   3.285   1.948   0.475  0.0245  0.1207 -0.1379
  824BF       F11119   3.245   2.022   0.259 -0.3465 -0.7450  0.3720
  824BF       F11120   3.145   2.111   0.447  0.5161 -0.2373  0.0560
  825BF       B11121   2.296   3.433   3.653 -0.0722  0.2631 -0.1188
  825BF       F11122   2.315   3.320   3.573  0.2179 -0.4733  0.0009
  825BF       F11123   2.180   3.422   3.728 -0.0364  0.2324  0.1557
  825BF       F11124   2.398   3.435   3.746 -0.1929  0.0569  0.0310
  825BF       F11125   2.297   3.543   3.576 -0.3263 -0.1061 -0.3680
  826BF       B11126   1.045   4.756   4.172  0.3495  0.0743  0.2865
  826BF       F11127   1.165   4.797   4.112 -0.1650  0.4093 -0.1725
  826BF       F11128   0.953   4.859   4.184 -0.0436  0.1020 -0.6211
  826BF       F11129   0.995   4.654   4.099  0.2738  0.8672 -0.4540
  826BF       F11130   1.075   4.717   4.304  0.0059  0.2360 -0.1135
  827BF       B11131   3.026   1.962   1.927  0.5979  0.6517  0.4289
  827BF       F11132   2.897   2.002   1.913  0.6786 -0.1704 -0.3982
  827BF       F11133   3.047   1.851   2.003  0.2807  0.0206  0.1227
  827BF       F11134   3.070   1.935   1.796 -0.2311  0.1403 -0.1703
  827BF       F11135   3.099   2.064   1.989 -0.3274  0.2209 -0.2774
  828BF       B11136   0.846   0.637   3.723 -0.2291 -0.1458  0.1193
  828BF       F11137   0.838   0.715   3.838  0.8781 -0.1710  0.0969
  828BF       F11138   0.961   0.685   3.645  0.1438  0.1651 -0.5332
  828BF       F11139   0.863   0.504   3.755  0.3616 -0.0099 -0.9642
  828BF       F11140   0.730   0.654   3.646 -0.2951 -0.1730  1.0851
  829BF       B11141   0.602   3.922   3.836 -0.2427 -0.1321  0.3670
  829BF       F11142   0.702   3.910   3.932 -0.7018 -0.2151 -0.3418
  829BF       F11143   0.631   3.845   3.725  0.0341 -0.1285 -0.0741
  829BF       F11144   0.486   3.882   3.909 -0.2959  0.4997 -0.4110
  829BF       F11145   0.592   4.061   3.805  0.4835 -0.3209 -0.2906
  830BF       B11146   5.005   1.536   1.780  0.1366 -0.3498  0.8297
  830BF       F11147   4.920   1.530   1.886  0.1528 -0.0025 -0.0312
  830BF       F11148   5.103   1.429   1.777  0.6916 -0.2540 -0.7677
  830BF       F11149   4.922   1.520   1.669  0.0913  0.0652  0.2170
  830BF       F11150   5.068   1.657   1.787 -0.2675  0.5835 -0.3520
  831BF       B11151   1.010   3.741   4.847 -0.2062  0.1262 -0.2748
  831BF       F11152   1.046   3.734   4.714 -0.5636  0.4308 -0.4216
  831BF       F11153   0.895   3.668   4.867  0.9934  0.1354  0.3550
  831BF       F11154   1.120   3.703   4.930 -0.4592  0.0993  0.1309
  831BF       F11155   0.991   3.875   4.873  0.7246 -0.4231  0.0314
  832BF       B11156   2.479   2.928   1.699 -0.1458 -0.0984 -0.4317
  832BF       F11157   2.395   2.818   1.680 -0.1138  0.9031  0.0109
  832BF       F11158   2.593   2.925   1.620 -0.1839 -0.0350  0.2949
  832BF       F11159   2.413   3.044   1.681  0.2111 -0.1256 -0.5118
  832BF       F11160   2.531   2.928   1.828  0.4068 -0.1822 -0.1993
  833BF       B11161   1.410   4.167   4.010 -0.0402 -0.4367 -1.3896
  833BF       F11162   1.292   4.240   4.003  0.6579 -0.2402 -0.0002
  833BF       F11163   1.487   4.203   3.895  0.3076 -0.4979 -0.0664
  833BF       F11164   1.468   4.200   4.137  0.4734 -0.3158 -0.6994
  833BF       F11165   1.382   4.032   4.019  0.3610 -0.6050 -0.0208
  834BF       B11166   3.575   1.033   0.685  0.7543  0.6018 -0.7794
  834BF       F11167   3.488   0.939   0.638 -0.0040 -0.0553  0.4920
  834BF       F11168   3.569   1.028   0.827  0.7123 -0.2599 -0.1473
  834BF       F11169   3.706   0.999   0.654 -0.1440  0.0758  0.0203
  834BF       F11170   3.536   1.153   0.628 -0.0221 -0.1940 -0.2299
  835BF       B11171   2.343   1.378   1.173  0.6610 -0.0844  0.0493
  835BF       F11172   2.381   1.488   1.084 -0.1984 -0.4656 -0.3160
  835BF       F11173   2.238   1.425   1.254  0.2510  0.1001  0.6263
  835BF       F11174   2.301   1.267   1.094 -0.1670 -0.1516 -0.1271
  835BF       F11175   2.455   1.339   1.249 -0.5141  0.3107 -0.3736
  836BF       B11176   1.848   0.675   3.456 -0.9392  0.8108 -0.4460
  836BF       F11177   1.744   0.755   3.512 -0.0482  0.0943 -0.4664
  836BF       F11178   1.829   0.539   3.476  0.7511 -0.3341 -0.4601
  836BF       F11179   1.850   0.693   3.318  0.3383  0.3149 -0.1794
  836BF       F11180   1.973   0.711   3.510  0.0429  0.0061 -0.1273
  837BF       B11181   1.338   3.608   4.215 -0.1375  0.2389 -0.0528
  837BF       F11182   1.337   3.502   4.304  0.0172 -0.0121  0.0481
  837BF       F11183   1.376   3.549   4.091 -0.1303  0.3832 -0.3097
  837BF       F11184   1.214   3.677   4.198 -0.2434 -0.3488 -0.1717
  837BF       F11185   1.437   3.691   4.261  0.0855  0.4612  0.3752
  838BF       B11186   1.307   0.063   0.375 -0.0875 -0.0394  0.6172
  838BF       F11187   1.298  -0.046   0.289 -0.3978 -0.4125  0.0816
  838BF       F11188   1.385   0.022   0.479 -0.0578  0.0264 -0.1642
  838BF       F11189   1.352   0.182   0.312 -0.0391  0.2120  0.4913
  838BF       F11190   1.177   0.096   0.425 -0.1677 -0.3550 -0.2416
  839BF       B11191   4.457   0.475   1.039  0.0449  0.8757 -0.5011
  839BF       F11192   4.444   0.362   1.116 -0.0085  0.6487  0.8029
  839BF       F11193   4.449   0.446   0.899  0.0581  0.2128 -0.6867
  839BF       F11194   4.348   0.554   1.061  0.3891  0.3079  0.1126
  839BF       F11195   4.576   0.548   1.064 -0.0991 -0.1431  0.1645
  840BF       B11196   0.507   2.010   4.324  0.6089 -0.1054  0.4464
  840BF       F11197   0.582   2.099   4.399 -0.0158  0.1117  1.0510
  840BF       F11198   0.582   1.951   4.230  0.2454  1.0389  0.7197
  840BF       F11199   0.445   1.911   4.406  0.4909  0.7694  0.7021
  840BF       F11200   0.406   2.083   4.269 -0.0241  0.3804 -0.0940
  841BF       B11201   4.182   0.587   0.523 -0.6882  0.4996 -0.5411
  841BF       F11202   4.292   0.611   0.610 -0.0928  0.3079 -0.0620
  841BF       F11203   4.122   0.463   0.554 -0.3558  0.5735  0.2172
  841BF       F11204   4.089   0.689   0.536  0.6037  0.1501 -0.2068
  841BF       F11205   4.229   0.564   0.399 -0.3219 -0.0327 -0.3759
  842BF       B11206   1.501   0.531   4.093 -0.1115  0.4704 -0.5677
  842BF       F11207   1.441   0.444   4.186  0.1993 -0.4231 -0.0821
  842BF       F11208   1.459   0.662   4.106 -0.6069 -0.6531 -0.3671
  842BF       F11209   1.635   0.528   4.127 -0.7442 -0.6993 -0.1612
  842BF       F11210   1.487   0.480   3.965 -0.4266  0.3218  0.1320
  843BF       B11211   4.967   0.783   1.770  0.0623  0.8733 -0.1675
  843BF       F11212   5.038   0.858   1.867  0.7938 -0.2076 -0.0499
  843BF       F11213   4.846   0.845   1.746 -0.6010  0.5358 -0.6210
  843BF       F11214   5.038   0.772   1.654  0.0184  0.6303  0.2097
  843BF       F11215   4.922   0.659   1.824 -0.5457  0.0414  0.7115
  844BF       B11216   0.688   3.976   2.450  0.1410  0.5024  0.5644
  844BF       F11217   0.757   3.859   2.497  0.0172  0.5153 -0.8598
  844BF       F11218   0.548   3.960   2.456  0.2607  0.3477 -0.2731
  844BF       F11219   0.725   4.089   2.520 -0.5762  0.0007 -0.5053
  844BF       F11220   0.721   3.998   2.320 -0.0835 -0.3684  0.5181
  845BF       B11221   1.167   1.253   3.405  0.2924  0.4686  0.3049
  845BF       F11222   1.052   1.172   3.427  0.2019  0.0436  0.5431
  845BF       F11223   1.207   1.230   3.271  0.3793  0.0600  0.1845
  845BF       F11224   1.137   1.387   3.430  0.2130  0.4335 -0.2584
  845BF       F11225   1.267   1.218   3.493  0.0461 -0.1724 -0.1578
  846BF       B11226   4.985   3.153   1.380 -0.2205  0.3356 -0.3132
  846BF       F11227   4.905   3.142   1.266  0.5405 -0.4865  0.0787
  846BF       F11228   4.954   3.045   1.463 -0.1439  0.1704  0.5862
  846BF       F11229   5.123   3.144   1.344  1.0903 -0.6441 -0.2456
  846BF       F11230   4.962   3.274   1.438 -0.0484 -0.0764  0.7510
  847BF       B11231   1.031   2.807   2.286  0.2930  0.0863 -0.2342
  847BF       F11232   0.982   2.801   2.409 -0.3068  0.0086 -0.4083
  847BF       F11233   0.973   2.703   2.208 -0.4134 -0.0539 -0.0658
  847BF       F11234   0.994   2.918   2.222 -0.0301 -0.1403  0.2476
  847BF       F11235   1.166   2.803   2.289 -0.4962 -0.2265  0.1338
  848BF       B11236   3.518   1.342   0.103 -0.2513  0.0881  0.5002
  848BF       F11237   3.496   1.469   0.156 -0.0226 -0.3699  0.2288
  848BF       F11238   3.464   1.247   0.185 -0.0290 -0.5520  0.2542
  848BF       F11239   3.465   1.327  -0.018 -0.3165  0.0904 -0.1921
  848BF       F11240   3.655   1.321   0.096 -0.0423  0.7373  0.2167
  849BF       B11241   4.941   3.995   3.325 -0.3446  0.0922 -0.2362
  849BF       F11242   4.860   4.058   3.232 -0.2710  0.4337  0.1351
  849BF       F11243   4.975   4.090   3.412  0.0932  0.3194 -0.4386
  849BF       F11244   4.864   3.892   3.394 -0.5714 -0.0189  0.1101
  849BF       F11245   5.062   3.950   3.273  0.1807 -0.1853 -0.1980
  850BF       B11246   1.152   1.921   1.383 -0.0904 -0.2248 -0.4928
  850BF       F11247   1.055   2.018   1.363 -0.2346  0.3835 -0.2110
  850BF       F11248   1.191   1.853   1.266  0.0172 -0.0509  0.1489
  850BF       F11249   1.259   1.986   1.434  0.1073 -0.0003 -0.0305
  850BF       F11250   1.106   1.824   1.465  0.7105  0.1461  0.1784
  851BF       B11251   3.934   0.611   1.298  0.0335  0.1561  0.0001
  851BF       F11252   4.041   0.528   1.300  0.3159  0.1607 -0.3897
  851BF       F11253   3.912   0.643   1.163 -0.1229 -0.8960 -0.0008
  851BF       F11254   3.827   0.531   1.339  0.0754 -0.2387 -0.4550
  851BF       F11255   3.953   0.727   1.373  0.5807 -0.1454 -0.1387
  852BF       B11256   0.437   3.449   4.678 -0.1285  0.7670 -0.3498
  852BF       F11257   0.342   3.554   4.663  0.1263 -0.0594  0.4077
  852BF       F11258   0.460   3.425   4.814  0.5615 -0.4223 -0.8883
  852BF       F11259   0.406   3.330   4.615  0.7014 -0.6880 -0.2574
  852BF       F11260   0.554   3.497   4.617  0.3435 -0.1532  0.2054
  853BF       B11261   2.054   2.116   3.794  0.0328 -0.0888  0.3284
  853BF       F11262   1.944   2.153   3.716 -0.0080  0.0259 -0.5719
  853BF       F11263   2.046   1.976   3.809 -0.5162 -0.1676 -0.2068
  853BF       F11264   2.176   2.160   3.735  0.0906 -0.3558 -0.3917
  853BF       F11265   2.030   2.176   3.919  0.3469 -0.0797  0.6038
  854BF       B11266   4.320   0.194   3.038 -0.4038  0.0367 -0.6070
  854BF       F11267   4.431   0.246   3.096 -0.2205  0.2109  0.0916
  854BF       F11268   4.346   0.186   2.902 -0.2264  0.1168  0.1726
  854BF       F11269   4.290   0.066   3.090 -0.0499 -0.0782 -0.1558
  854BF       F11270   4.210   0.277   3.058 -0.3600 -0.5596 -0.0643
  855BF       B11271   0.710   4.570   0.718 -0.7737 -0.7398  0.8472
  855BF       F11272   0.723   4.436   0.741 -0.4027  0.3887 -0.0456
  855BF       F11273   0.581   4.617   0.759  0.1107 -0.0177  0.1650
  855BF       F11274   0.800   4.635   0.796 -0.1382  0.2879  0.1568
  855BF       F11275   0.728   4.600   0.582  0.2126 -0.0370  0.3404
  856BF       B11276   0.164   1.086   3.625 -0.0506  0.0526 -0.4253
  856BF       F11277   0.200   1.218   3.635 -0.7266  0.1587  0.3632
  856BF       F11278   0.047   1.075   3.702 -0.0724  0.2459  0.4250
  856BF       F11279   0.141   1.042   3.491 -0.1239 -0.1803 -1.0865
  856BF       F11280   0.262   1.012   3.687 -0.3273 -0.1047 -0.2347
  857BF       B11281   1.101   0.599   1.590 -0.2085 -0.2770  0.1361
  857BF       F11282   1.109   0.725   1.538 -0.2984 -0.4796  0.0820
  857BF       F11283   1.157   0.604   1.713  0.6836  0.1201 -0.0877
  857BF       F11284   0.971   0.561   1.597  0.1168 -0.1305  0.5514
  857BF       F11285   1.175   0.510   1.512  0.2454 -0.2106 -0.2935
  858BF       B11286   4.463   0.933   4.196  0.0915 -0.4043  0.7464
  858BF       F11287   4.420   0.869   4.080 -0.1101 -0.5868  0.0862
  858BF       F11288   4.422   0.860   4.307  0.0767  0.9379 -0.0436
  858BF       F11289   4.602   0.954   4.199  0.0119  0.1487 -0.0128
  858BF       F11290   4.407   1.059   4.202  0.1149 -0.4413 -0.2120
  859BF       B11291   0.287   3.275   3.373  0.1458  0.1186 -0.5006
  859BF       F11292   0.273   3.240   3.238  0.0787 -0.3688 -0.0460
  859BF       F11293   0.166   3.280   3.442 -1.0017  0.4375  0.4531
  859BF       F11294   0.368   3.191   3.443 -0.0605 -0.2171  0.2359
  859BF       F11295   0.341   3.403   3.383  0.2503 -0.3758  0.0726
  860BF       B11296   3.339   1.433   3.293 -0.0770 -0.8084 -0.2826
  860BF       F11297   3.389   1.515   3.187 -0.4987 -0.3555  0.4687
  860BF       F11298   3.340   1.509   3.407  0.4813  0.1543 -0.0044
  860BF       F11299   3.210   1.386   3.251  0.5996 -0.7350 -0.2671
  860BF       F11300   3.429   1.325   3.313 -0.1252  0.2895  0.1591
  861BF       B11301   0.855   3.358   2.997  1.2397  0.4537  0.1853
  861BF       F11302   0.950   3.328   3.098  0.2877 -0.1725  0.0041
  861BF       F11303   0.749   3.424   3.057  0.3466  0.8107 -0.7671
  861BF       F11304   0.908   3.442   2.893  0.0304  0.5851 -0.1045
  861BF       F11305   0.812   3.239   2.946  0.4095 -0.0134 -0.5447
  862BF       B11306   0.291   2.911   0.315  0.0493 -0.5903 -0.0294
  862BF       F11307   0.315   2.778   0.328 -0.0674  0.3620 -0.4512
  862BF       F11308   0.210   2.956   0.420  0.2532  0.7487  0.4104
  862BF       F11309   0.419   2.969   0.317 -0.2314  0.1544  0.0367
  862BF       F11310   0.225   2.941   0.197  0.5748 -0.0757  0.1516
  863BF       B11311   1.618   0.219   1.945  0.2446  0.2821  0.2583
  863BF       F11312   1.738   0.275   1.904 -0.4139 -0.8640  0.4648
  863BF       F11313   1.528   0.318   1.986 -0.4568 -0.2699 -0.3221
  863BF       F11314   1.556   0.153   1.843 -0.4760  0.0434 -0.2138
  863BF       F11315   1.635   0.137   2.058 -0.3365  0.1719 -0.2736
  864BF       B11316   2.921   1.438   1.567  0.0111 -0.0625  0.2138
  864BF       F11317   2.875   1.325   1.630  0.3558 -0.4550 -0.1838
  864BF       F11318   2.824   1.491   1.478 -0.3581 -0.0603 -0.4091
  864BF       F11319   2.964   1.532   1.663  0.0610 -0.1615 -0.3896
  864BF       F11320   3.031   1.403   1.490  0.7469  0.0189 -0.1961
  865BF       B11321   1.330   2.808   4.082 -0.1738 -0.2378  0.0005
  865BF       F11322   1.452   2.737   4.076  0.0675 -0.2339 -0.4478
  865BF       F11323   1.242   2.751   4.167 -0.3748  0.0130  0.5810
  865BF       F11324   1.354   2.934   4.131 -0.3651  0.1556 -0.2277
  865BF       F11325   1.286   2.814   3.958  0.1245 -0.2061  0.5902
  866BF       B11326   0.800   4.206   4.554 -0.2915  0.4008 -0.3453
  866BF       F11327   0.686   4.206   4.480  0.2396 -0.0957  0.1236
  866BF       F11328   0.845   4.331   4.577 -0.2918  0.1246  0.2277
  866BF       F11329   0.780   4.139   4.674  0.3522 -0.3304 -0.2327
  866BF       F11330   0.889   4.136   4.474 -0.2220 -0.2950 -0.1809
  867BF       B11331   2.490   0.971   3.800 -0.3640  0.8454  0.2017
  867BF       F11332   2.539   0.840   3.791  0.7620  0.2712 -0.5110
  867BF       F11333   2.440   1.006   3.925  0.7436  0.1578 -0.1484
  867BF       F11334   2.591   1.065   3.780 -0.1664 -0.5418 -0.1653
  867BF       F11335   2.406   0.994   3.693  0.1507 -0.2575  0.4347
  868BF       B11336   2.152   3.399   1.020  0.0208 -0.1346 -0.1863
  868BF       F11337   2.175   3.277   0.970 -0.0485  0.0233  0.2572
  868BF       F11338   2.077   3.385   1.138 -0.0143 -0.2975 -0.1030
  868BF       F11339   2.273   3.467   1.057  0.3532  0.4938  0.2107
  868BF       F11340   2.081   3.481   0.933 -0.7079 -0.4334 -0.0614
  869BF       B11341   1.218   3.691   3.274 -0.1909  0.4873  0.1124
  869BF       F11342   1.128   3.654   3.172 -0.3464 -0.4350  0.0076
  869BF       F11343   1.345   3.707   3.225  0.1178  0.4632 -0.0902
  869BF       F11344   1.175   3.814   3.318 -0.6417 -0.4707  0.4465
  869BF       F11345   1.213   3.588   3.367 -0.5894  0.1454  0.1216
  870BF       B11346   4.460   2.097   2.728  0.0859  0.7076 -0.5449
  870BF       F11347   4.466   2.098   2.593  0.1430  0.2866  0.4507
  870BF       F11348   4.329   2.117   2.767 -0.0890  0.2726  0.4324
  870BF       F11349   4.501   1.971   2.769  0.2783  0.1245 -0.1184
  870BF       F11350   4.536   2.193   2.784  0.1958  0.1253  0.1582
  871BF       B11351   2.578   1.541   2.335 -0.1984  0.1162 -0.0756
  871BF       F11352   2.623   1.413   2.329  0.1323 -0.1672  0.2458
  871BF       F11353   2.618   1.598   2.218 -0.4110  0.0492  0.7297
  871BF       F11354   2.440   1.546   2.348  0.9498 -0.1869 -0.2017
  871BF       F11355   2.653   1.616   2.426  0.3610  0.3051 -0.2010
  872BF       B11356   4.010   2.272   2.190 -0.4692 -0.8944 -0.8148
  872BF       F11357   4.027   2.220   2.317  0.0670  0.7382 -0.0388
  872BF       F11358   4.135   2.263   2.123 -0.3917 -0.1072 -0.0695
  872BF       F11359   3.911   2.198   2.131 -0.4226  0.0811 -0.4527
  872BF       F11360   3.964   2.402   2.198  0.3563  0.1062 -0.6020
  873BF       B11361   4.995   1.818   4.436  0.0624  0.4911  0.6766
  873BF       F11362   4.869   1.814   4.491 -0.0429 -0.0990 -0.4805
  873BF       F11363   5.030   1.693   4.383 -0.0436  0.9253  0.1606
  873BF       F11364   4.990   1.898   4.326 -0.9318 -0.1406 -0.2290
  873BF       F11365   5.083   1.865   4.526  0.3429  0.0369  0.0785
  874BF       B11366   4.952   4.603   3.129 -0.0311  0.5604  0.9308
  874BF       F11367   4.868   4.690   3.194  0.0586  0.2043 -0.4269
  874BF       F11368   4.972   4.486   3.196  0.3967  0.1995 -0.0483
  874BF       F11369   4.889   4.567   3.010  0.4518 -0.3918  0.1593
  874BF       F11370   5.066   4.679   3.101  0.5796 -0.0208  0.1039
  875BF       B11371   2.088   2.120   3.230  0.2477 -0.2577  0.0650
  875BF       F11372   2.078   2.057   3.357  0.2511 -0.0115  0.0821
  875BF       F11373   1.955   2.117   3.180  0.1197  0.0685  0.7012
  875BF       F11374   2.148   2.246   3.243  0.6030  0.2252 -0.1828
  875BF       F11375   2.165   2.049   3.145 -0.3598 -0.0220 -0.5520
  876BF       B11376   4.395   3.458   1.322 -0.1169  0.0835 -0.0658
  876BF       F11377   4.452   3.504   1.202  0.2237  0.1611 -0.2463
  876BF       F11378   4.490   3.398   1.397  0.9015 -0.0064 -0.2648
  876BF       F11379   4.345   3.565   1.388 -0.1328  0.4149 -0.6272
  876BF       F11380   4.296   3.371   1.289  0.6039  0.6297  0.4772
  877BF       B11381   3.001   2.816   4.576  0.0765 -0.0292  0.5796
  877BF       F11382   2.939   2.692   4.603 -0.2767 -0.1375 -0.3064
  877BF       F11383   2.989   2.905   4.681  0.2395 -0.5238 -0.4645
  877BF       F11384   3.136   2.785   4.558  0.1226 -0.1175  0.0271
  877BF       F11385   2.951   2.866   4.456 -0.6468  0.0822  0.6299
  878BF       B11386   3.506   3.618   1.092 -0.5757 -0.4349 -0.4434
  878BF       F11387   3.491   3.569   1.219 -0.2634 -0.1010  0.2943
  878BF       F11388   3.498   3.757   1.111  0.0556  0.4751  0.4959
  878BF       F11389   3.629   3.595   1.041  0.0943  0.5728  0.2972
  878BF       F11390   3.420   3.566   0.997  0.4545  0.1481  0.4082
  879BF       B11391   3.447   0.265   3.463  0.2057  0.7251 -0.8059
  879BF       F11392   3.346   0.174   3.450  0.2420 -0.1223  0.4237
  879BF       F11393   3.419   0.349   3.572 -0.2615 -0.0515 -0.8339
  879BF       F11394   3.564   0.202   3.501  0.2847 -0.1353 -0.1343
  879BF       F11395   3.466   0.338   3.344 -0.1643  0.1756 -0.2435
  880BF       B11396   4.667   0.811   4.759  0.3028  0.8234  0.0571
  880BF       F11397   4.598   0.825   4.637 -0.1489  0.1242 -0.3720
  880BF       F11398   4.740   0.693   4.755  0.0689  0.0066  0.3639
  880BF       F11399   4.753   0.922   4.776  0.6241 -0.3344  0.0684
  880BF       F11400   4.578   0.810   4.869  0.4821  0.0546 -0.1613
  881BF       B11401   0.018   4.106   4.685 -0.0293 -0.2187  0.3030
  881BF       F11402   0.122   4.073   4.601 -0.1883  0.3226  0.4888
  881BF       F11403  -0.079   4.003   4.670 -0.3932 -0.1135  0.8615
  881BF       F11404   0.061   4.111   4.812  0.3834 -0.5294 -0.7476
  881BF       F11405  -0.040   4.230   4.655  0.3771  0.1980  0.8498
  882BF       B11406   3.313   4.636   0.601  0.4645  1.0500 -0.2842
  882BF       F11407   3.185   4.626   0.556  0.3745 -0.1959  0.2189
  882BF       F11408   3.386   4.718   0.521 -0.2222  0.2002 -0.5447
  882BF       F11409   3.313   4.698   0.728 -0.9422  0.1967 -0.2843
  882BF       F11410   3.373   4.510   0.610  0.1555  0.3963 -0.2496
  883BF       B11411   4.401   5.014   2.137  0.9876 -1.0691  0.2813
  883BF       F11412   4.305   5.051   2.039  0.2346  0.0095 -0.1728
  883BF       F11413   4.515   5.096   2.131  0.0794  0.3328 -0.0865
  883BF       F11414   4.344   5.014   2.265 -0.0883  0.5198  0.0082
  883BF       F11415   4.442   4.889   2.100 -0.0470 -0.0884 -0.3127
  884BF       B11416   1.546   2.158   2.513  0.0887  0.3649  0.4402
  884BF       F11417   1.624   2.267   2.470  0.0027  0.4775  0.4329
  884BF       F11418   1.590   2.095   2.629  0.2396  0.4693  0.2358
  884BF       F11419   1.420   2.210   2.538 -0.8032  0.0859 -0.3212
  884BF       F11420   1.548   2.059   2.415 -0.1543  0.1816 -0.3414
  885BF       B11421   1.936   2.964   4.335 -0.0826  0.1613 -0.3205
  885BF       F11422   1.918   2.919   4.466  0.6579 -0.0168  0.2960
  885BF       F11423   1.987   2.859   4.255 -0.3674 -0.1841 -0.3889
  885BF       F11424   1.814   3.001   4.282  0.1409 -0.4232 -0.1903
  885BF       F11425   2.018   3.076   4.336 -0.2227 -0.0229  0.2467
  886BF       B11426   2.755   0.744   1.686  0.6999 -0.1466  0.0218
  886BF       F11427   2.798   0.740   1.821 -0.1440 -0.4073 -0.4226
  886BF       F11428   2.652   0.839   1.678 -0.0601  0.2721 -0.0852
  886BF       F11429   2.863   0.772   1.606  0.4748  0.1867 -0.5833
  886BF       F11430   2.719   0.613   1.645  0.9043 -0.4653 -0.0576
  887BF       B11431   2.529   2.329   0.690  0.4991  0.1875  0.2629
  887BF       F11432   2.578   2.461   0.698 -0.3717 -0.7186  0.4824
  887BF       F11433   2.576   2.270   0.571 -0.3119  0.2578  0.0194
  887BF       F11434   2.574   2.253   0.800  0.0655  0.1473  0.1826
  887BF       F11435   2.385   2.325   0.694 -0.0109  0.2969 -0.3220
  888BF       B11436   0.386   4.722   4.935 -0.4005 -0.1192  0.4746
  888BF       F11437   0.433   4.630   4.847  0.0693 -0.2766  0.8311
  888BF       F11438   0.249   4.724   4.940 -0.5956  0.5311  0.0591
  888BF       F11439   0.439   4.707   5.057  0.6753 -0.2174 -1.0303
  888BF       F11440   0.435   4.844   4.884 -0.5358 -0.3129  0.1346
  889BF       B11441   3.251   3.177   1.535 -0.7573 -0.2107  0.0074
  889BF       F11442   3.373   3.236   1.552  0.4271 -0.6355 -0.1109
  889BF       F11443   3.164   3.190   1.647  0.6425 -0.1201  0.1777
  889BF       F11444   3.182   3.246   1.435  0.5498  0.0157 -0.4495
  889BF       F11445   3.271   3.044   1.497  0.0266 -0.4229  0.4009
  890BF       B11446   0.038   2.116   3.200  0.4723 -0.4820 -0.0446
  890BF       F11447   0.100   2.088   3.076  0.6244 -0.4306  0.1009
  890BF       F11448  -0.069   2.202   3.174  0.0225  0.4269  0.4312
  890BF       F11449  -0.009   2.012   3.269 -0.5622  0.1342 -0.3579
  890BF       F11450   0.123   2.188   3.284 -0.0008 -0.3781 -0.3376
  891BF       B11451   0.358   4.857   2.114  1.0773  0.1546  0.8205
  891BF       F11452   0.222   4.876   2.084 -0.1480  0.4029 -0.0816
  891BF       F11453   0.428   4.845   1.996 -0.6043  0.5740  0.2586
  891BF       F11454   0.407   4.955   2.199  0.3866 -0.5898 -0.0752
  891BF       F11455   0.374   4.734   2.185  0.3633 -0.0471 -0.0349
  892BF       B11456   0.872   1.322   0.406 -0.6421 -0.0280 -0.0404
  892BF       F11457   0.783   1.424   0.431  0.1381  0.4080 -0.2549
  892BF       F11458   0.815   1.223   0.320 -0.3731 -0.3916 -0.3655
  892BF       F11459   0.977   1.379   0.340 -0.0498 -0.1407 -0.6027
  892BF       F11460   0.910   1.266   0.525  0.4381 -0.1967  0.0540
  893BF       B11461   2.886   1.089   1.006  0.2336 -0.0861  0.1410
  893BF       F11462   2.875   1.149   1.131 -0.1384  0.3373  0.2360
  893BF       F11463   2.952   0.970   1.016 -0.1692  0.0502  0.3440
  893BF       F11464   2.758   1.068   0.956 -0.2335 -0.2271  0.5623
  893BF       F11465   2.963   1.170   0.919 -0.3735 -0.1494  0.4396
  894BF       B11466   0.712   1.762   3.776 -0.8140 -0.2516 -0.6771
  894BF       F11467   0.809   1.809   3.856  0.0516 -0.4875  0.5430
  894BF       F11468   0.608   1.733   3.860  0.3787 -0.2303  0.1494
  894BF       F11469   0.664   1.864   3.691 -0.1722 -0.0876 -0.2223
  894BF       F11470   0.742   1.650   3.701 -0.2277 -0.4333 -0.5497
  895BF       B11471   4.557   4.399   2.296 -0.1685 -0.3304  0.8084
  895BF       F11472   4.546   4.293   2.212 -0.5645 -0.0902 -0.3557
  895BF       F11473   4.515   4.366   2.426 -0.3829  0.1362  0.3500
  895BF       F11474   4.691   4.441   2.301 -0.0706  0.6217 -0.1394
  895BF       F11475   4.476   4.497   2.248  0.1681 -0.5187  0.0780
  896BF       B11476   3.038   0.555   1.075 -0.2742  0.1317  0.1037
  896BF       F11477   3.009   0.662   1.154 -0.3218 -0.3371  0.4980
  896BF       F11478   2.931   0.483   1.027 -0.2217 -0.3970 -0.2201
  896BF       F11479   3.108   0.597   0.962 -0.2958  0.1691 -0.1513
  896BF       F11480   3.125   0.478   1.152 -0.0412 -0.4087 -0.2284
  897BF       B11481   1.733   1.538   1.157 -0.1722  0.6964  0.4021
  897BF       F11482   1.711   1.516   1.023  0.6430  0.5554  0.1945
  897BF       F11483   1.825   1.447   1.200  0.5791 -0.1616 -0.0550
  897BF       F11484   1.783   1.664   1.177 -0.5684 -0.2032 -0.4296
  897BF       F11485   1.619   1.524   1.230  0.3272 -0.3688 -0.4193
  898BF       B11486   1.074   0.852   2.558  0.6279 -0.3013  0.6582
  898BF       F11487   1.114   0.733   2.496 -0.0378 -0.2950 -0.1519
  898BF       F11488   0.938   0.845   2.585 -0.2834  0.6069 -0.0582
  898BF       F11489   1.140   0.881   2.671 -0.6307 -0.0510  0.4316
  898BF       F11490   1.079   0.961   2.477 -0.6516 -0.0366 -0.2422
  899BF       B11491   0.802   4.993   2.503 -0.1715  0.2869  0.8349
  899BF       F11492   0.894   5.030   2.409  0.5981  0.0499 -0.3668
  899BF       F11493   0.852   5.023   2.629 -0.2854  0.2808 -0.0330
  899BF       F11494   0.687   5.062   2.488  0.3519 -0.1691 -0.7471
  899BF       F11495   0.791   4.860   2.489  0.7461  0.1914  0.2726
  900BF       B11496   3.906   2.121   1.105 -0.1025  0.5035  0.4243
  900BF       F11497   3.969   2.212   1.186 -0.0695  0.2664  0.3926
  900BF       F11498   3.865   2.008   1.169  0.0647  0.0531 -0.1903
  900BF       F11499   3.792   2.176   1.039 -0.4302 -0.0615  0.4119
  900BF       F11500   4.005   2.085   1.009 -0.2760  0.4624  0.4314
  901BF       B11501   1.849   2.648   1.632  0.0837 -0.1248 -0.1046
  901BF       F11502   1.973   2.713   1.627  0.2646  0.4921 -0.6021
  901BF       F11503   1.757   2.707   1.545 -0.0471  0.0724 -0.1843
  901BF       F11504   1.878   2.518   1.596 -0.0844 -0.0836 -0.0750
  901BF       F11505   1.799   2.642   1.762  0.0806 -0.0096  0.4941
  902BF       B11506   3.073   4.563   2.311 -1.2497  0.1549  0.1864
  902BF       F11507   3.152   4.540   2.429 -0.7068  0.1840 -0.5132
  902BF       F11508   3.035   4.441   2.256  0.6571 -0.0574 -0.2112
  902BF       F11509   2.961   4.641   2.339 -0.2649 -0.0454 -0.1697
  902BF       F11510   3.163   4.624   2.218 -0.4222 -0.2851 -0.0632
  903BF       B11511   4.309   1.252   2.535 -0.2365 -0.2748 -0.7426
  903BF       F11512   4.232   1.151   2.587  0.3252  0.4672 -0.3323
  903BF       F11513   4.426   1.249   2.604  0.2190  0.5054 -0.7261
  903BF       F11514   4.339   1.230   2.398 -0.1032  0.0799  0.2498
  903BF       F11515   4.249   1.371   2.550  0.0565 -0.4273 -0.5133
  904BF       B11516   4.010   1.759   4.608 -0.1691  0.7027  0.8322
  904BF       F11517   3.900   1.830   4.662  0.5349 -0.0692 -0.0145
  904BF       F11518   4.039   1.793   4.473 -0.0224  0.5630 -0.3701
  904BF       F11519   4.125   1.773   4.689 -0.2345 -0.3752 -0.0573
  904BF       F11520   3.973   1.626   4.612  0.2725  0.1040 -0.0145
  905BF       B11521   0.307   0.503   4.841 -0.6681  0.0247  0.0678
  905BF       F11522   0.246   0.485   4.963  0.8658  0.5048  0.4414
  905BF       F11523   0.362   0.632   4.832  0.4926 -0.0981 -0.5279
  905BF       F11524   0.408   0.408   4.822 -0.4893  0.0296 -0.4032
  905BF       F11525   0.214   0.490   4.738  0.5176  0.2224 -0.1311
  906BF       B11526   1.527   4.373   0.496  0.5041  0.1436  0.6413
  906BF       F11527   1.472   4.381   0.369 -0.0897  0.1786 -0.0528
  906BF       F11528   1.584   4.496   0.538  0.2763  0.8463 -0.3863
  906BF       F11529   1.433   4.334   0.589 -0.0811 -0.1709  0.3596
  906BF       F11530   1.619   4.268   0.494  0.2041  0.0208 -0.0671
  907BF       B11531   2.669   4.013   1.246 -0.0041 -0.2000  0.2175
  907BF       F11532   2.718   4.131   1.195 -0.1052 -0.2800  0.6397
  907BF       F11533   2.753   3.956   1.345 -0.1433 -0.2049  0.1481
  907BF       F11534   2.547   4.036   1.301 -0.0861 -0.6478 -0.0694
  907BF       F11535   2.651   3.923   1.137 -0.3435 -0.2071  0.0105
  908BF       B11536   0.001   3.448   4.080 -0.3076 -0.1817 -0.1067
  908BF       F11537  -0.074   3.344   4.018 -0.3260 -0.0020  0.0416
  908BF       F11538  -0.061   3.462   4.202 -0.1705  0.6860 -0.4216
  908BF       F11539   0.131   3.407   4.100 -0.8151  0.1499 -0.0378
  908BF       F11540  -0.005   3.565   4.011  0.1739 -0.4856 -0.1331
  909BF       B11541   3.611   2.712   4.609  0.5885  0.4429  0.5876
  909BF       F11542   3.732   2.679   4.668  0.1308  0.2211 -0.2003
  909BF       F11543   3.594   2.615   4.510 -0.1751 -0.4000 -0.7667
  909BF       F11544   3.507   2.703   4.703 -0.4500 -0.1616  0.1418
  909BF       F11545   3.620   2.840   4.550  0.3232 -0.2442  0.4677
  910BF       B11546   4.609   4.347   4.197 -0.0638  0.0838  0.5331
  910BF       F11547   4.489   4.411   4.163 -0.5358 -0.7458  0.3603
  910BF       F11548   4.714   4.431   4.170 -0.3886  0.6092  0.3354
  910BF       F11549   4.615   4.307   4.325  0.0554  0.0316  0.0316
  910BF       F11550   4.630   4.232   4.115  0.3205 -0.1494  0.6362
  911BF       B11551   0.237   2.138   2.645 -0.8451 -0.4139 -0.2711
  911BF       F11552   0.254   2.021   2.576  0.1410  0.2059  0.1896
  911BF       F11553   0.279   2.121   2.777  0.4847 -0.2442  0.1596
  911BF       F11554   0.326   2.224   2.578  0.5160 -0.4507 -0.3972
  911BF       F11555   0.110   2.182   2.631 -0.4747 -0.0942 -0.3640
  912BF       B11556   1.840   2.243   0.425  0.6422  0.4627  0.0190
  912BF       F11557   1.899   2.182   0.534  0.5186  0.2906 -0.0964
  912BF       F11558   1.874   2.376   0.409 -0.1629  0.0456 -0.1889
  912BF       F11559   1.882   2.179   0.310  0.1642 -0.3244 -0.1405
  912BF       F11560   1.705   2.230   0.431  0.4941  0.0615  0.0507
  913BF       B11561   1.577   3.207   0.771 -0.0781  0.3041  0.0092
  913BF       F11562   1.537   3.096   0.701  0.3015  0.4513  0.1511
  913BF       F11563   1.480   3.236   0.866 -0.2941  0.3395  0.3211
  913BF       F11564   1.702   3.186   0.828 -0.0559 -0.3509 -0.4400
  913BF       F11565   1.577   3.321   0.693 -0.2863 -0.4346 -0.4611
  914BF       B11566   4.257   3.419   2.143  0.2022 -0.2333  0.3898
  914BF       F11567   4.258   3.497   2.027  0.1339 -0.2372 -0.2963
  914BF       F11568   4.158   3.461   2.231  0.2938 -0.0866  0.1034
  914BF       F11569   4.235   3.285   2.113 -0.4813 -0.5299 -0.1782
  914BF       F11570   4.381   3.440   2.197 -0.2116  0.1271 -0.3149
  915BF       B11571   1.762   3.482   0.277  0.0951 -0.4356 -0.1140
  915BF       F11572   1.863   3.449   0.371  0.7120 -0.1665 -0.0930
  915BF       F11573   1.815   3.518   0.154 -0.2356  0.2571  0.0037
  915BF       F11574   1.668   3.375   0.262 -0.2948 -0.3377  0.2124
  915BF       F11575   1.678   3.577   0.335 -0.3615 -0.3023  0.0844
  916BF       B11576   1.284   0.877   4.398 -0.4613  0.6610 -0.1400
  916BF       F11577   1.312   0.925   4.526 -0.3721 -0.3242 -0.0168
  916BF       F11578   1.352   0.761   4.377  0.2558 -0.2184 -0.1787
  916BF       F11579   1.151   0.851   4.383 -0.6006 -0.3568 -0.4186
  916BF       F11580   1.321   0.977   4.310  0.4729 -0.2982 -0.2112
  917BF       B11581   3.481   3.136   0.074 -0.4845 -0.1568  0.2399
  917BF       F11582   3.388   3.152   0.179  0.0119 -0.2851  0.0332
  917BF       F11583   3.524   3.004   0.081 -0.3408  0.0376  0.3949
  917BF       F11584   3.422   3.155  -0.049 -0.3044 -0.5965 -0.2248
  917BF       F11585   3.591   3.220   0.083 -0.0209 -0.0909  0.5559
  918BF       B11586   3.641   1.013   2.603 -0.0334  1.1122  0.0251
  918BF       F11587   3.524   1.077   2.626  0.0762  0.4334  0.0082
  918BF       F11588   3.732   1.089   2.532  0.0088 -0.2978  0.1983
  918BF       F11589   3.695   0.977   2.729 -0.1182 -0.1187  0.1340
  918BF       F11590   3.624   0.899   2.525  0.0468  0.4916 -0.1898
  919BF       B11591   1.491   1.428   3.994  0.6067  0.1076  0.1548
  919BF       F11592   1.508   1.375   4.123  0.1695 -0.0742  0.2510
  919BF       F11593   1.504   1.566   3.986 -0.3890  0.3489 -0.7239
  919BF       F11594   1.587   1.372   3.915  0.0707 -0.0555 -0.7477
  919BF       F11595   1.363   1.391   3.944 -0.1698  0.3380  0.2255
  920BF       B11596   4.480   2.075   1.743  0.0547  0.0762 -0.3781
  920BF       F11597   4.502   2.200   1.695  0.4638 -0.1794 -0.6940
  920BF       F11598   4.564   2.057   1.853  0.0815 -0.2480  0.0080
  920BF       F11599   4.352   2.068   1.780 -0.1717  0.5161  0.1334
  920BF       F11600   4.506   1.980   1.641  0.2088 -0.7589  0.1664
  921BF       B11601   4.139   4.191   3.751  1.2194 -0.4002  0.2332
  921BF       F11602   4.085   4.257   3.861  0.4644  0.0145  0.4856
  921BF       F11603   4.196   4.285   3.664  0.8706 -0.5407 -0.2223
  921BF       F11604   4.241   4.117   3.805  0.1912 -0.1923  0.1820
  921BF       F11605   4.047   4.109   3.685  0.1821 -0.0079 -0.3964
  922BF       B11606   3.032   3.029   3.395 -0.2671 -0.3808  0.7617
  922BF       F11607   2.984   2.922   3.321 -0.9755 -0.2787 -0.6723
  922BF       F11608   3.162   3.065   3.361 -0.1432 -0.0314  0.2110
  922BF       F11609   2.947   3.134   3.378 -0.5747 -0.1149 -0.0649
  922BF       F11610   3.038   2.999   3.533  0.1058  0.3236  0.0284
  923BF       B11611   0.114   2.813   3.455  0.6448 -0.7081 -0.1198
  923BF       F11612   0.036   2.813   3.575 -0.4216  0.5494  0.7612
  923BF       F11613   0.040   2.758   3.350  0.5198  0.3031  0.3051
  923BF       F11614   0.133   2.946   3.425 -0.6429  0.2523  0.2744
  923BF       F11615   0.238   2.753   3.458 -0.6107 -0.4005  0.4506
  924BF       B11616   3.400   0.598   0.675 -0.5612 -0.7484  0.2309
  924BF       F11617   3.460   0.652   0.563 -0.3479 -0.0288 -0.2330
  924BF       F11618   3.387   0.680   0.787 -0.0563 -0.2035 -0.0082
  924BF       F11619   3.267   0.558   0.634  0.4508  0.2405 -0.1107
  924BF       F11620   3.466   0.485   0.717  0.2687 -0.0493  0.0035
  925BF       B11621   0.489   0.177   0.982  0.1585  0.1411 -0.2026
  925BF       F11622   0.420   0.287   1.037 -0.4815 -0.0005 -0.3876
  925BF       F11623   0.566   0.223   0.880  0.5371 -0.2762  0.2090
  925BF       F11624   0.572   0.123   1.084 -0.0184  0.0678 -0.0672
  925BF       F11625   0.406   0.082   0.928 -0.6178  0.4190  0.3928
  926BF       B11626   3.302   3.745   2.480  0.7039 -0.1785 -1.0893
  926BF       F11627   3.224   3.702   2.376  0.0352  0.1106 -0.1086
  926BF       F11628   3.353   3.872   2.452  0.3615  0.2400  0.0586
  926BF       F11629   3.233   3.765   2.600  0.1546 -0.2329  0.0565
  926BF       F11630   3.405   3.652   2.496 -0.0096  0.0613 -0.7839
  927BF       B11631   0.125   4.912   4.389  0.1626  0.4787  0.7139
  927BF       F11632   0.246   4.965   4.370  0.4472 -0.2407 -0.2963
  927BF       F11633   0.081   4.936   4.519 -0.1322  0.6976 -0.8500
  927BF       F11634   0.035   4.956   4.290 -0.1557  0.3999 -0.0529
  927BF       F11635   0.136   4.778   4.367  0.0033 -0.0220 -0.0395
  928BF       B11636   3.352   2.098   3.796  0.4882  0.0191  0.4832
  928BF       F11637   3.392   2.060   3.922 -0.3385 -0.4951 -0.1487
  928BF       F11638   3.215   2.068   3.773 -0.1797  0.1370 -0.0272
  928BF       F11639   3.362   2.235   3.803 -0.0356  0.0714  0.0947
  928BF       F11640   3.434   2.031   3.701  0.1383  0.1630 -0.0325
  929BF       B11641   1.152   4.712   2.142  0.6603  0.3278  0.3490
  929BF       F11642   1.029   4.694   2.201  0.6095  0.4639 -0.1865
  929BF       F11643   1.159   4.648   2.021 -0.0469  0.3532  0.3861
  929BF       F11644   1.165   4.851   2.120 -0.1844  0.3758 -0.6060
  929BF       F11645   1.246   4.655   2.223  0.4036 -0.1069 -0.3019
  930BF       B11646   2.063   4.442   0.267  0.3861 -0.4051 -0.5908
  930BF       F11647   2.164   4.507   0.348  0.0636 -0.1286  0.4184
  930BF       F11648   2.040   4.500   0.142 -0.0833 -0.2581 -0.2267
  930BF       F11649   2.090   4.302   0.258  0.1275  0.1680  0.1548
  930BF       F11650   1.949   4.452   0.345 -0.1095 -0.2358 -0.5591
  931BF       B11651   0.031   0.733   3.095  0.8415 -0.1121  0.1503
  931BF       F11652   0.166   0.689   3.108 -0.4426 -0.0565  0.2318
  931BF       F11653   0.023   0.825   2.994  0.1468 -0.5448 -0.0893
  931BF       F11654  -0.053   0.626   3.068 -0.0762 -0.4662 -0.3374
  931BF       F11655  -0.007   0.796   3.216  0.1463  0.7813  0.2436
  932BF       B11656   1.472   0.122   1.440  0.0908  0.3538  0.0031
  932BF       F11657   1.342   0.072   1.478 -0.6052 -0.1151 -0.6313
  932BF       F11658   1.464   0.257   1.428 -0.1464 -0.2448  0.2416
  932BF       F11659   1.571   0.101   1.535  0.0102  0.7334  0.2577
  932BF       F11660   1.514   0.069   1.317  0.1775  0.5305  0.2769
  933BF       B11661   2.723   3.060   2.427  0.0860  1.2109 -0.9949
  933BF       F11662   2.662   3.167   2.368  0.0111  0.0272  0.0680
  933BF       F11663   2.679   2.934   2.389  0.3576  0.0033 -0.3231
  933BF       F11664   2.862   3.071   2.413  0.4535  0.3294 -0.4572
  933BF       F11665   2.692   3.062   2.562 -0.7141 -0.0024 -0.3430
  934BF       B11666   1.824   1.518   0.019 -0.0210 -0.1325 -0.5115
  934BF       F11667   1.824   1.638  -0.051  0.2758  0.2784  0.0867
  934BF       F11668   1.714   1.512   0.113  0.2379  0.2606  0.1836
  934BF       F11669   1.814   1.407  -0.065 -0.0774  0.2097  0.1958
  934BF       F11670   1.942   1.503   0.095  0.6860 -0.1081 -0.5541
  935BF       B11671   0.045   5.012   3.716  0.0603  0.6392  0.7603
  935BF       F11672  -0.091   5.000   3.701  0.2946 -0.1207 -0.2424
  935BF       F11673   0.099   5.044   3.600 -0.1769 -0.3387 -0.5335
  935BF       F11674   0.073   5.110   3.805  0.2211 -0.5565  0.0455
  935BF       F11675   0.099   4.895   3.765  0.3945  0.1444  0.0577
  936BF       B11676   3.820   4.996   4.141 -0.1665  0.3421 -1.0250
  936BF       F11677   3.893   5.007   4.028 -0.4433 -0.1739  0.4340
  936BF       F11678   3.858   4.884   4.210 -0.5731  0.3228 -0.4690
  936BF       F11679   3.847   5.102   4.222  0.1603  0.6051  0.5302
  936BF       F11680   3.688   4.985   4.122 -0.0056  0.3746  0.3650
  937BF       B11681   2.231   0.182   4.983  0.2245 -0.0994 -0.1654
  937BF       F11682   2.162   0.138   4.871 -0.2791 -0.0679 -0.1208
  937BF       F11683   2.146   0.175   5.095 -0.3617  0.6577 -0.0682
  937BF       F11684   2.339   0.104   5.010 -0.4309  0.3609  0.5436
  937BF       F11685   2.279   0.314   4.966  0.4553  0.3571  0.1240
  938BF       B11686   2.697   1.870   1.185 -0.3001  0.0007  0.5055
  938BF       F11687   2.666   2.005   1.169 -0.4546  0.3811  0.0512
  938BF       F11688   2.670   1.811   1.061  0.2574  0.7459  0.4275
  938BF       F11689   2.819   1.850   1.234 -0.2538  0.0539 -0.7196
  938BF       F11690   2.611   1.832   1.283 -0.3929 -0.4439  0.5742
  939BF       B11691   3.113   3.448   2.061  1.5280  0.1703 -0.2679
  939BF       F11692   3.182   3.330   2.101  0.2822 -0.1087  0.3694
  939BF       F11693   3.066   3.423   1.928  0.3418 -0.2316 -0.3313
  939BF       F11694   3.012   3.483   2.152  0.1116  0.2113 -0.0416
  939BF       F11695   3.209   3.548   2.060  0.1674 -0.1143 -1.1495
  940BF       B11696   0.144   0.564   4.135  0.3788 -0.0155  0.0803
  940BF       F11697   0.215   0.458   4.190 -0.4837  0.6424  0.9718
  940BF       F11698   0.200   0.685   4.170  0.2148 -0.1079  0.1440
  940BF       F11699   0.132   0.554   3.997  0.0123 -0.4817  0.2145
  940BF       F11700   0.021   0.546   4.190 -0.5873  0.2046  0.1414
  941BF       B11701   3.148   4.159   2.912 -0.2980 -0.6017 -0.8461
  941BF       F11702   3.101   4.081   3.019 -0.2685  0.2369  0.5517
  941BF       F11703   3.260   4.100   2.854 -0.4581 -0.5333  0.3882
  941BF       F11704   3.045   4.168   2.821 -0.3410 -0.4426  0.1189
  941BF       F11705   3.194   4.284   2.954 -0.1873  0.7553 -0.4968
  942BF       B11706   1.079   4.493   1.428  0.1154 -0.3475  0.6394
  942BF       F11707   0.947   4.448   1.451  0.2769  0.0211 -0.0320
  942BF       F11708   1.149   4.477   1.543 -0.6295 -0.4637 -0.1757
  942BF       F11709   1.139   4.425   1.324 -0.1528 -0.1614 -0.5674
  942BF       F11710   1.081   4.629   1.394 -0.5749 -0.4418  0.1329
  943BF       B11711   2.819   2.836   0.740 -0.1432  0.3645 -0.1554
  943BF       F11712   2.759   2.711   0.746  0.5941 -0.2631 -0.4601
  943BF       F11713   2.725   2.934   0.737  0.0542 -0.4617 -0.6898
  943BF       F11714   2.892   2.844   0.860 -0.0641 -0.0119  0.0218
  943BF       F11715   2.906   2.853   0.630 -0.2294 -0.8868 -0.5004
  944BF       B11716   1.350   1.275   0.751 -0.1581  0.3343 -0.3810
  944BF       F11717   1.452   1.179   0.725 -0.1599 -0.1058  0.4743
  944BF       F11718   1.318   1.293   0.888 -0.4576  0.1270 -0.2534
  944BF       F11719   1.398   1.384   0.682 -0.5188 -0.3869  0.0785
  944BF       F11720   1.238   1.232   0.684  0.2702  0.1929 -0.2360
  945BF       B11721   4.698   0.568   3.900 -0.3859  0.0678 -0.4749
  945BF       F11722   4.717   0.434   3.923  0.2598 -0.2056  0.3085
  945BF       F11723   4.584   0.589   3.825 -0.2625 -0.0818 -0.2891
  945BF       F11724   4.676   0.627   4.019 -0.1182  0.3244  0.0712
  945BF       F11725   4.812   0.619   3.839 -0.2328 -0.1427  0.1957
  946BF       B11726   0.682   1.337   4.603 -0.4881 -0.0811  0.5435
  946BF       F11727   0.625   1.360   4.728 -0.5625 -0.0866 -0.0063
  946BF       F11728   0.673   1.460   4.536  0.0268  0.0703 -0.2311
  946BF       F11729   0.813   1.298   4.625 -0.0092  0.1998 -0.1576
  946BF       F11730   0.614   1.239   4.532 -0.0651  0.3526 -0.3475
  947BF       B11731   1.089   2.673   1.648  0.3222 -0.3316 -0.6162
  947BF       F11732   1.000   2.682   1.753 -0.1966  0.2810  0.4608
  947BF       F11733   1.138   2.804   1.629  0.0489 -0.1894  0.1675
  947BF       F11734   1.202   2.600   1.683 -0.0546  0.6274 -0.4562
  947BF       F11735   1.031   2.628   1.528 -0.2202  0.0468 -0.1315
  948BF       B11736   3.066   0.900   3.474 -0.3359  0.4645 -0.4586
  948BF       F11737   3.155   0.861   3.374  0.3999  0.5148 -0.0898
  948BF       F11738   3.034   1.030   3.456  0.5536  0.5598 -0.1323
  948BF       F11739   2.952   0.818   3.456  0.4075 -0.2293 -0.7656
  948BF       F11740   3.122   0.880   3.600 -0.4650 -0.1359  0.6329
  949BF       B11741   4.252   2.838   1.875 -0.5272 -0.0557 -0.4876
  949BF       F11742   4.207   2.854   2.007 -0.2983 -0.4371 -0.0676
  949BF       F11743   4.138   2.830   1.796  0.3797 -0.0137  0.0499
  949BF       F11744   4.335   2.945   1.846 -0.0772 -0.4042  0.3323
  949BF       F11745   4.321   2.720   1.871  0.2395  0.5345 -0.1701
  950BF       B11746   3.587   2.404   1.711 -0.8783  0.3399 -0.0496
  950BF       F11747   3.536   2.460   1.600  0.0822 -0.4359  0.8744
  950BF       F11748   3.658   2.287   1.690  0.5445 -0.0376  0.3976
  950BF       F11749   3.670   2.501   1.758 -0.1606  0.3026  0.1070
  950BF       F11750   3.481   2.389   1.798  0.3055  0.3838  0.3153
  951BF       B11751   0.050   4.653   0.362  0.7496 -0.2127 -0.2041
  951BF       F11752  -0.024   4.586   0.270  0.1363 -0.5237 -0.1435
  951BF       F11753   0.009   4.623   0.491  0.0670 -0.0066  0.2847
  951BF       F11754   0.188   4.628   0.346  0.8843 -0.0798  0.0888
  951BF       F11755   0.027   4.786   0.339  0.2829 -0.5071 -0.1743
  952BF       B11756   2.061   2.798   0.961  0.5559  0.1802  0.1684
  952BF       F11757   2.150   2.778   1.061 -0.4917  0.0447  0.0593
  952BF       F11758   2.071   2.925   0.919  0.6604 -0.7669 -0.2652
  952BF       F11759   2.087   2.707   0.863  0.0985  0.2054 -0.2561
  952BF       F11760   1.937   2.772   1.012 -0.0355 -0.2883 -0.0020
  953BF       B11761   4.454   4.531   0.534  0.0779  0.1135  0.3099
  953BF       F11762   4.442   4.671   0.521  0.7038  0.1413  0.1049
  953BF       F11763   4.336   4.486   0.600  0.1630  0.3850 -0.1771
  953BF       F11764   4.467   4.460   0.415 -0.3345 -0.1557 -0.1758
  953BF       F11765   4.560   4.490   0.613 -0.7379  0.1222 -0.2604
  954BF       B11766   2.166   3.822   2.738 -0.0295  0.0967  0.2082
  954BF       F11767   2.257   3.722   2.777 -0.4541  0.2821  0.2323
  954BF       F11768   2.047   3.810   2.808  0.2102  0.0974  0.2132
  954BF       F11769   2.221   3.952   2.752  0.1654 -0.1838  0.2481
  954BF       F11770   2.135   3.811   2.608  0.1786 -0.1021  0.0403
  955BF       B11771   1.675   1.554   2.267  0.2578 -0.0004  0.5741
  955BF       F11772   1.771   1.493   2.185 -0.1648  0.0186  0.1038
  955BF       F11773   1.572   1.605   2.191  0.2291  0.3893  0.1383
  955BF       F11774   1.635   1.462   2.364  0.1576 -0.0993  0.0551
  955BF       F11775   1.727   1.654   2.334 -0.2091  0.1943 -0.7546
  956BF       B11776   4.647   4.039   0.643  0.0849  0.2743  0.0301
  956BF       F11777   4.774   4.005   0.679  0.1904  0.0372 -0.6106
  956BF       F11778   4.552   3.992   0.734  0.3390  1.0052  0.3114
  956BF       F11779   4.630   4.178   0.630 -0.2688 -0.4380  0.1664
  956BF       F11780   4.632   3.980   0.517 -0.6757  0.3391 -0.2567
  957BF       B11781   3.770   2.317   2.847  0.3794 -0.4813 -0.0360
  957BF       F11782   3.792   2.421   2.944 -0.4815  0.4469  0.1020
  957BF       F11783   3.883   2.297   2.768 -0.2557  0.0983  0.3473
  957BF       F11784   3.740   2.202   2.918  0.0500 -0.6075  0.1714
  957BF       F11785   3.665   2.347   2.762  0.3514  0.2569  0.4269
  958BF       B11786   3.031   0.039   1.803  0.5694 -0.0429  0.2599
  958BF       F11787   3.156  -0.008   1.748  0.9545  0.2642  0.0465
  958BF       F11788   2.924   0.036   1.717 -0.2890 -0.1406 -0.0982
  958BF       F11789   3.004  -0.034   1.914 -0.5075  0.5804  0.1135
  958BF       F11790   3.043   0.167   1.848 -0.0859 -0.0500 -0.3382
  959BF       B11791   5.019   0.523   2.341 -0.0049  0.4366 -0.5654
  959BF       F11792   4.883   0.496   2.354 -0.1459  0.1605  0.4854
  959BF       F11793   5.049   0.659   2.364  0.2645  0.0374  0.0951
  959BF       F11794   5.084   0.443   2.433  0.5580  0.3594  0.2081
  959BF       F11795   5.066   0.485   2.217  0.3631  0.1971  0.7642
  960BF       B11796   3.996   2.016   0.084  0.3127 -1.0432 -0.5450
  960BF       F11797   3.874   2.034   0.030 -0.0066 -0.4321 -0.1638
  960BF       F11798   4.037   2.138   0.142 -0.0364  0.1338  0.5105
  960BF       F11799   3.992   1.924   0.193 -0.4098 -0.8470 -0.0200
  960BF       F11800   4.090   1.982  -0.016  0.4762  0.0162 -0.3121
  961BF       B11801   4.755   1.368   2.779  0.5836 -0.0009  0.1161
  961BF       F11802   4.718   1.245   2.829  0.0118 -0.1150  0.2746
  961BF       F11803   4.792   1.459   2.878  0.1918  0.1051 -0.0361
  961BF       F11804   4.856   1.360   2.683  0.0103  0.1747 -0.1199
  961BF       F11805   4.642   1.413   2.716 -0.3733 -0.0579 -0.2132
  962BF       B11806   3.974   4.114   4.592  0.4716 -0.1972 -0.4889
  962BF       F11807   3.866   4.060   4.664 -0.7229 -0.0381  0.2632
  962BF       F11808   4.098   4.044   4.620 -0.2822 -0.2165 -0.0606
  962BF       F11809   3.949   4.106   4.458  0.2111  0.1363  0.4051
  962BF       F11810   3.990   4.251   4.619 -0.4926  0.2492 -0.1109
  963BF       B11811   2.592   4.532   4.981  0.6352 -0.1485 -0.3299
  963BF       F11812   2.640   4.599   5.096  0.0791 -0.2940  0.1797
  963BF       F11813   2.466   4.473   5.015 -0.1268  0.4991  0.5508
  963BF       F11814   2.562   4.628   4.886 -0.2741  0.1420  0.1467
  963BF       F11815   2.678   4.433   4.930 -0.3778 -0.4065  0.1089
  964BF       B11816   4.372   4.593   2.851 -0.0712  0.6386  0.0298
  964BF       F11817   4.256   4.518   2.814 -0.6086  0.0126  0.1946
  964BF       F11818   4.360   4.726   2.819  0.2310  0.2363  0.4225
  964BF       F11819   4.390   4.587   2.989 -0.4925 -0.3193  0.3541
  964BF       F11820   4.477   4.538   2.786  0.0250  0.1324 -0.0024
  965BF       B11821   3.334   2.433   1.053  0.6394 -0.0607 -0.1273
  965BF       F11822   3.218   2.479   0.985  0.0926  0.4588  0.1024
  965BF       F11823   3.333   2.508   1.171 -0.0547  0.0750 -0.0955
  965BF       F11824   3.324   2.295   1.078 -0.4120 -0.0360 -0.0755
  965BF       F11825   3.453   2.466   0.985  0.5456 -0.2979 -0.6407
  966BF       B11826   0.491   0.149   0.329  0.6263 -0.6516 -0.8397
  966BF       F11827   0.615   0.176   0.369  0.0470  0.3447 -0.0733
  966BF       F11828   0.447   0.227   0.221  0.3041  0.1713 -0.2239
  966BF       F11829   0.486   0.018   0.292 -0.1833 -0.1910  0.2087
  966BF       F11830   0.395   0.167   0.433  0.1225  0.3280 -0.0239
  967BF       B11831   1.095   0.045   0.920 -0.3392 -0.3532  0.0878
  967BF       F11832   1.001   0.124   0.855  0.3269  0.2745 -0.2966
  967BF       F11833   1.071   0.031   1.057 -0.3790  0.2483  0.0795
  967BF       F11834   1.118  -0.083   0.873 -0.1178  0.0076 -0.0597
  967BF       F11835   1.219   0.120   0.891  0.1010 -0.4415 -0.4389
  968BF       B11836   0.021   1.566   1.160  0.9056 -0.0496  0.2312
  968BF       F11837   0.018   1.435   1.120  0.1419 -0.4889  0.0292
  968BF       F11838   0.034   1.566   1.302 -0.1542  0.0659 -0.0772
  968BF       F11839   0.111   1.645   1.094 -0.1477 -0.2754 -0.4467
  968BF       F11840  -0.102   1.631   1.135 -0.0329  0.5799 -0.2033
  969BF       B11841   2.136   1.505   2.684  0.5057 -0.5429 -0.0721
  969BF       F11842   2.041   1.424   2.740 -0.0264 -0.2290  0.7497
  969BF       F11843   2.075   1.593   2.598  0.3103  0.1957  0.4363
  969BF       F11844   2.183   1.578   2.787  0.0607 -0.6094 -0.0511
  969BF       F11845   2.232   1.435   2.622 -0.2146  0.0075 -0.0172
  970BF       B11846   3.810   1.598   0.570 -0.4944  0.0119  0.2940
  970BF       F11847   3.816   1.522   0.683 -0.2070 -0.2497 -0.1077
  970BF       F11848   3.705   1.686   0.572  0.0115  0.1036  0.3259
  970BF       F11849   3.926   1.670   0.561 -0.4122  0.2294 -0.1031
  970BF       F11850   3.797   1.515   0.465 -0.1236 -0.2223  0.8014
  971BF       B11851   3.242   4.827   1.157  0.2412  0.0625  0.5514
  971BF       F11852   3.295   4.726   1.234  0.0027 -0.2679 -0.0566
  971BF       F11853   3.297   4.833   1.024 -0.1216 -0.4482 -0.1322
  971BF       F11854   3.104   4.806   1.159 -0.2686 -0.2615 -0.1888
  971BF       F11855   3.266   4.942   1.223 -0.4631  0.0693 -0.1451
  972BF       B11856   2.044   4.694   1.011  0.3552  0.1584 -0.4292
  972BF       F11857   2.108   4.596   0.939 -0.2942  0.3533  0.3196
  972BF       F11858   2.134   4.772   1.079  0.0532 -0.1501  0.1120
  972BF       F11859   1.954   4.765   0.932 -0.2624 -0.2050  0.2080
  972BF       F11860   1.962   4.620   1.100 -0.0921 -0.6670 -0.2619
  973BF       B11861   1.561   3.911   4.795  0.3256  0.3754 -0.4206
  973BF       F11862   1.447   3.948   4.860  0.6094  0.5888 -0.5858
  973BF       F11863   1.515   3.853   4.683  0.1742  0.1364 -0.4698
  973BF       F11864   1.629   4.021   4.752 -0.2448 -0.3716 -0.1475
  973BF       F11865   1.642   3.830   4.870 -0.3228 -0.3978 -0.7978
  974BF       B11866   3.836   3.583   0.365  0.3240  0.6529  0.5900
  974BF       F11867   3.884   3.706   0.326  0.0666 -0.0677 -0.8984
  974BF       F11868   3.938   3.513   0.427 -0.0034  0.0581 -0.3628
  974BF       F11869   3.742   3.587   0.465 -0.4780  0.0243 -0.4275
  974BF       F11870   3.791   3.521   0.253  0.0911  0.3026 -0.3250
  975BF       B11871   2.687   0.017   0.412  0.3775  0.7886  0.4157
  975BF       F11872   2.816   0.003   0.454  0.1159  0.1145 -0.2667
  975BF       F11873   2.639  -0.079   0.321 -0.2995  0.0740  0.2462
  975BF       F11874   2.602   0.005   0.522  0.4552 -0.3548 -0.2736
  975BF       F11875   2.676   0.152   0.366 -0.1712  0.0708  0.0175
  976BF       B11876   0.262   4.526   3.674 -0.2333  0.6950 -0.2489
  976BF       F11877   0.246   4.641   3.748  0.0475 -0.3011  0.5992
  976BF       F11878   0.212   4.542   3.546 -0.2446  0.2826  0.4148
  976BF       F11879   0.397   4.497   3.668 -0.1076 -0.2531  0.0950
  976BF       F11880   0.193   4.429   3.753  0.0974 -0.0283 -0.3141
  977BF       B11881   3.724   1.828   1.718 -0.2969 -0.4644  0.5051
  977BF       F11882   3.726   1.901   1.602  0.4625  0.0590  0.2468
  977BF       F11883   3.668   1.706   1.698 -0.4519 -0.1743  0.5529
  977BF       F11884   3.853   1.816   1.760 -0.3675  0.4297 -0.1952
  977BF       F11885   3.660   1.902   1.817  0.5427  0.3653  0.1616
  978BF       B11886   4.831   1.761   0.726 -0.4278 -0.2779 -0.6514
  978BF       F11887   4.759   1.854   0.644  1.2350  0.7144  0.1353
  978BF       F11888   4.959   1.818   0.728  0.0186  0.6345 -0.5386
  978BF       F11889   4.768   1.764   0.851 -0.1476  0.0649  0.2290
  978BF       F11890   4.835   1.630   0.677 -0.6109  0.1616  0.5116
  979BF       B11891   4.218   2.503   4.017  0.3378  0.4079  0.4006
  979BF       F11892   4.112   2.504   4.104  0.5120 -0.4566 -0.3373
  979BF       F11893   4.250   2.376   3.963 -0.2123 -0.3787  0.0189
  979BF       F11894   4.190   2.581   3.908 -0.0659  0.2219  0.1352
  979BF       F11895   4.335   2.552   4.075  0.2644  0.1369  0.0648
  980BF       B11896   0.345   4.627   1.264  0.9154 -0.0014  0.5073
  980BF       F11897   0.437   4.523   1.280 -0.1721 -0.3258  0.0481
  980BF       F11898   0.402   4.752   1.297 -0.5168  1.0151  0.5232
  980BF       F11899   0.303   4.622   1.128  0.2953 -0.0174 -0.1903
  980BF       F11900   0.224   4.615   1.333 -0.3815  0.8663 -0.7249
  981BF       B11901   3.991   0.044   2.500 -0.5029  0.5259 -0.1079
  981BF       F11902   3.893   0.095   2.578 -0.8012  0.1456 -0.1064
  981BF       F11903   3.955  -0.084   2.454  0.0354  0.1867  0.3017
  981BF       F11904   4.009   0.128   2.389 -0.2425  0.1125 -0.1127
  981BF       F11905   4.107   0.027   2.582  0.0009  0.2896  0.3027
  982BF       B11906   2.290   3.291   2.204  0.0098 -0.2203 -0.0271
  982BF       F11907   2.275   3.166   2.259 -0.0016 -0.3777 -0.5608
  982BF       F11908   2.358   3.363   2.296 -0.0440 -0.1339 -0.1045
  982BF       F11909   2.352   3.280   2.083  0.1155 -0.3152  0.0830
  982BF       F11910   2.163   3.342   2.185  0.0727  0.0496 -0.3152
  983BF       B11911   2.534   2.443   4.972  0.0845 -0.3943  0.1547
  983BF       F11912   2.540   2.480   4.839  0.3018  0.0956  0.0996
  983BF       F11913   2.630   2.508   5.046  0.2889 -0.0727  0.1860
  983BF       F11914   2.403   2.465   5.028 -0.2681 -0.2495 -0.0490
  983BF       F11915   2.562   2.311   4.983 -0.3999  0.2881 -0.2545
  984BF       B11916   1.421   4.267   2.368 -0.3855 -0.1650  0.5502
  984BF       F11917   1.322   4.173   2.394 -0.1224 -0.1694 -0.0582
  984BF       F11918   1.380   4.340   2.256 -0.5454  0.0189 -0.3412
  984BF       F11919   1.436   4.348   2.478 -0.5605  0.0023 -0.3068
  984BF       F11920   1.542   4.198   2.335  0.2221  0.2052 -0.4090
  985BF       B11921   3.786   3.697   3.232 -0.4026  0.5117  0.2063
  985BF       F11922   3.863   3.648   3.336  0.1148 -0.0108 -0.4756
  985BF       F11923   3.666   3.748   3.277  0.4637 -0.0568  0.0257
  985BF       F11924   3.862   3.789   3.155 -0.2149 -0.5213 -0.0565
  985BF       F11925   3.758   3.581   3.161  0.1879 -0.1511 -0.2540
  986BF       B11926   2.658   4.221   4.480 -0.0468 -0.2577  0.6557
  986BF       F11927   2.702   4.283   4.593  0.1192 -0.3089 -0.7463
  986BF       F11928   2.517   4.213   4.471 -0.5584 -0.0848  0.2195
  986BF       F11929   2.716   4.286   4.369  0.1883  0.1630  0.3198
  986BF       F11930   2.717   4.096   4.483  0.5022  0.3315 -0.3768
  987BF       B11931   3.745   2.818   0.884 -0.2282 -0.0929  0.0217
  987BF       F11932   3.884   2.830   0.867 -0.3177  0.0696  0.2441
  987BF       F11933   3.671   2.938   0.866  0.0088  0.1797 -0.4516
  987BF       F11934   3.695   2.724   0.798 -0.2677 -0.2693 -0.2078
  987BF       F11935   3.716   2.778   1.013  0.2163 -0.0197 -0.3645
  988BF       B11936   2.971   1.419   2.616 -0.7297 -0.0224 -0.2576
  988BF       F11937   3.057   1.343   2.701  0.3475  0.6193 -0.2242
  988BF       F11938   2.855   1.341   2.589 -0.1250 -0.3394 -0.0140
  988BF       F11939   2.934   1.540   2.670 -0.0382 -0.2724 -0.0711
  988BF       F11940   3.044   1.438   2.502  0.7410 -0.2683  0.3470
  989BF       B11941   0.481   2.485   2.795  1.1739  0.5568 -0.4775
  989BF       F11942   0.500   2.610   2.854 -0.3585 -0.2257  0.1525
  989BF       F11943   0.354   2.482   2.744 -0.3145 -0.2688 -0.0483
  989BF       F11944   0.574   2.448   2.700  0.0435  0.2786 -0.1227
  989BF       F11945   0.496   2.403   2.902  0.3437  0.2080  0.1754
  990BF       B11946   0.904   2.546   3.157 -0.6720 -0.1430  0.1486
  990BF       F11947   0.805   2.436   3.177 -0.6834  0.2975 -0.1275
  990BF       F11948   0.841   2.639   3.077 -0.2161 -0.5045  0.4118
  990BF       F11949   0.932   2.603   3.284  0.4670 -0.4327  0.1809
  990BF       F11950   1.019   2.506   3.087  0.0560 -0.1981  0.1236
  991BF       B11951   1.033   2.026   2.914 -0.0014 -0.1621 -0.2428
  991BF       F11952   1.094   2.106   2.812  0.3824  0.3101 -0.5628
  991BF       F11953   0.996   2.101   3.023  0.1246  0.1756 -0.3462
  991BF       F11954   0.915   1.974   2.853 -0.1678  0.2661  0.2481
  991BF       F11955   1.121   1.922   2.946  0.2063  0.0278 -0.0882
  992BF       B11956   3.628   2.909   2.247 -0.1084 -0.8221 -0.9430
  992BF       F11957   3.576   3.016   2.168  0.1152 -0.3083 -0.2158
  992BF       F11958   3.530   2.811   2.260  0.1744 -0.0105  0.7502
  992BF       F11959   3.743   2.858   2.178  0.0198 -0.2886 -0.2728
  992BF       F11960   3.676   2.962   2.374  0.5017  0.0404 -0.5403
  993BF       B11961   0.723   0.198   4.139  0.1175  0.0912  0.3919
  993BF       F11962   0.762   0.091   4.060 -0.5482  0.7352 -0.0275
  993BF       F11963   0.605   0.156   4.198  0.0604  0.1519  0.4491
  993BF       F11964   0.809   0.224   4.244 -0.3000 -0.4110  0.0614
  993BF       F11965   0.706   0.311   4.060 -0.1404  0.5829 -0.0754
  994BF       B11966   3.465   0.011   2.859  0.1503  0.4328 -0.2989
  994BF       F11967   3.520   0.049   2.742  0.7040  0.1570 -0.2473
  994BF       F11968   3.369  -0.084   2.817  0.0709 -0.7272 -0.1226
  994BF       F11969   3.561  -0.052   2.937 -0.1617 -0.0417 -0.0633
  994BF       F11970   3.407   0.119   2.917 -0.6863  0.4143 -0.0844
  995BF       B11971   0.452   4.528   4.241 -0.4139  0.6699 -0.5839
  995BF       F11972   0.385   4.433   4.319  0.0510  0.2571  0.2261
  995BF       F11973   0.393   4.531   4.116  0.2025  0.1486 -0.8122
  995BF       F11974   0.463   4.652   4.297  0.2326  0.6496 -0.1562
  995BF       F11975   0.578   4.479   4.204  0.2905  0.1541 -0.3211
  996BF       B11976   1.401   1.130   4.841  0.0382  0.3849  0.3882
  996BF       F11977   1.516   1.074   4.783 -0.4573  0.4331  0.2903
  996BF       F11978   1.423   1.259   4.874 -0.0457 -0.1806 -0.0163
  996BF       F11979   1.294   1.119   4.753 -0.3421 -0.3691 -0.0641
  996BF       F11980   1.369   1.068   4.959  0.2270  0.2039 -0.0189
  997BF       B11981   2.729   4.985   1.080 -0.6192 -0.8778 -0.1836
  997BF       F11982   2.685   5.119   1.116  0.6355 -0.2590  0.1300
  997BF       F11983   2.849   4.957   1.141  0.3572 -0.7635  0.2613
  997BF       F11984   2.644   4.889   1.133  0.8761 -0.6985  0.3853
  997BF       F11985   2.739   4.967   0.946 -0.0260 -0.0378 -0.4149
  998BF       B11986   1.897   2.199   1.154 -0.2607  0.1124 -0.6626
  998BF       F11987   1.768   2.246   1.135 -0.6723  0.1917 -0.4309
  998BF       F11988   1.986   2.221   1.051 -0.5297 -0.0102  0.6351
  998BF       F11989   1.954   2.264   1.264 -0.5174  0.2513 -0.0868
  998BF       F11990   1.899   2.065   1.182 -0.4047  0.2792  0.3868
  999BF       B11991   0.521   1.603   0.762 -0.1726  0.3838  0.3771
  999BF       F11992   0.585   1.532   0.858 -0.4254  0.2029  0.6478
  999BF       F11993   0.555   1.558   0.637 -0.0577  0.8973 -0.9649
  999BF       F11994   0.385   1.584   0.784  0.0848 -0.3815 -0.4596
  999BF       F11995   0.556   1.737   0.772  0.2773  0.4339  0.7254
 1000BF       B11996   1.420   0.854   1.969  0.8060 -0.7906 -0.2858
 1000BF       F11997   1.510   0.802   2.057 -0.3248  0.1722 -0.1792
 1000BF       F11998   1.306   0.894   2.038 -0.2362  0.1352 -0.6203
 1000BF       F11999   1.472   0.953   1.893  0.0749 -0.2937 -0.2649
 1000BF       F12000   1.378   0.757   1.884 -0.0487 -0.2039 -0.1272
   5.04500   5.04500   5.04500
