; Tetrafluoroborate anion [BF4]
; Ionic liquid OPLS-AA force field, Version 3/2017, Orlando Acevedo
; B. Doherty, X. Zhong, S. Gathiaka, B. Li, O. Acevedo,
; Revisiting OPLS Force Field Parameters for Ionic Liquid Simulations,
; J. Chem. Theory Comput., 2017, 13, 6131-6145.

[ moleculetype ]
; name    nrexcl
BF4    3

[ atoms ]
; nr type resnr residu atom cgnr  charge    mass
1    B    1    BF    B    1     0.6620    10.811
2    F    1    BF    F    1    -0.3655    18.998
3    F    1    BF    F    1    -0.3655    18.998
4    F    1    BF    F    1    -0.3655    18.998
5    F    1    BF    F    1    -0.3655    18.998

[ bonds ]
; ai  aj  funct  c0(nm)  c1(kJ mol-1 nm-2)
1    2    1    0.1394    323500
1    3    1    0.1394    323500
1    4    1    0.1394    323500
1    5    1    0.1394    323500

[ angles ]
; ai  aj  ak  funct  c0(deg)  c1(kJ mol-1 rad-2)
3    1    2    1    109.47    669.5
4    1    2    1    109.47    669.5
4    1    3    1    109.47    669.5
5    1    2    1    109.47    669.5
5    1    3    1    109.47    669.5
5    1    4    1    109.47    669.5
