; 1-ethyl-3-methylimidazolium cation [EMIM]
; Ionic liquid OPLS-AA force field, Version 3/2017, Orlando Acevedo
; B. Doherty, X. Zhong, S. Gathiaka, B. Li, O. Acevedo,
; Revisiting OPLS Force Field Parameters for Ionic Liquid Simulations,
; J. Chem. Theory Comput., 2017, 13, 6131-6145.

[ moleculetype ]
; name    nrexcl
EMI    3

[ atoms ]
; nr  type resnr residu atom cgnr  charge     mass
1     CR    1    EMI    C01    1    -0.072    12.011
2     CW    1    EMI    C04    2    -0.192    12.011
3     CW    1    EMI    C03    3    -0.192    12.011
4     HR    1    EMI    H07    1    0.168     1.008
5     HW    1    EMI    H09    2    0.216     1.008
6     HW    1    EMI    H08    3    0.216     1.008
7     CM    1    EMI    C05    4    -0.280    12.011
8     HM    1    EMI    H0B    4    0.144     1.011
9     HM    1    EMI    H0C    4    0.144     1.011
10    HM    1    EMI    H0D    4    0.144     1.011
11    NA    1    EMI    N00    5    0.176     14.007
12    CA    1    EMI    C06    6    -0.136    12.011
13    HA    1    EMI    H0F    6    0.144     1.011
14    CT    1    EMI    C0N    7    -0.192    12.011
15    HT    1    EMI    H0O    7    0.064     1.011
16    HT    1    EMI    H0P    7    0.064     1.011
17    HT    1    EMI    H0Q    7    0.064     1.011
18    NA    1    EMI    N02    8    0.176     14.007
19    HA    1    EMI    H0E    6    0.144     1.011

[ bonds ]
; ai  aj  funct  c0(nm)  c1(kJ mol-1 nm-2)
1     11    1    0.1315    399153.6
1     18    1    0.1315    399153.6
7     8     1    0.1080    284512.0
7     9     1    0.1080    284512.0
7     10    1    0.1080    284512.0
7     11    1    0.1465    282001.6
1     4     1    0.1069    307105.6
2     18    1    0.1378    357313.6
3     11    1    0.1378    357313.6
2     3     1    0.1336    435136.0
2     5     1    0.1068    307105.6
3     6     1    0.1068    307105.6
18    12    1    0.1476    282001.6
12    13    1    0.1080    284512.0
12    19    1    0.1080    284512.0
12    14    1    0.1521    224262.4
14    15    1    0.1084    284512.0
14    16    1    0.1084    284512.0
14    17    1    0.1084    284512.0

[ angles ]
; ai  aj  ak  funct  c0(deg)  c1(kJ mol-1 rad-2)
8     7     9     1    109.8    276.14
8     7     10    1    109.8    276.14
9     7     10    1    109.8    276.14
8     7     11    1    109.2    313.80
9     7     11    1    109.2    313.80
10    7     11    1    109.2    313.80
7     11    1     1    126.4    585.76
7     11    3     1    125.6    585.76
11    1     4     1    125.1    292.88
18    1     4     1    125.1    292.88
11    1     18    1    109.8    585.76
1     11    3     1    107.9    585.76
1     18    2     1    107.9    585.76
11    3     2     1    107.1    585.76
18    2     3     1    107.1    585.76
11    3     6     1    122.0    292.88
18    2     5     1    122.0    292.88
6     3     2     1    130.9    292.88
5     2     3     1    130.9    292.88
2     18    12    1    125.3    585.76
1     18    12    1    126.8    585.76
18    12    13    1    107.5    313.80
18    12    19    1    107.5    313.80
19    12    14    1    111.2    313.80
13    12    14    1    111.2    313.80
13    12    19    1    108.9    276.14
12    14    15    1    110.7    313.80
12    14    16    1    110.7    313.80
12    14    17    1    110.7    313.80
15    14    16    1    107.9    276.14
15    14    17    1    107.9    276.14
16    14    17    1    107.9    276.14
18    12    14    1    112.6    488.27

[ dihedrals ]
; ai  aj  ak  al  funct   c0      c1       c2       c3
8     7     11    1     5    0.000    0.000     0.000    0.000
9     7     11    1     5    0.000    0.000     0.000    0.000
10    7     11    1     5    0.000    0.000     0.000    0.000
8     7     11    3     5    0.000    0.000     0.519    0.000
9     7     11    3     5    0.000    0.000     0.519    0.000
10    7     11    3     5    0.000    0.000     0.519    0.000
7     11    1     4     5    0.000    19.460    0.000    0.000
7     11    1     18    5    0.000    19.460    0.000    0.000
7     11    3     2     5    0.000    12.552    0.000    0.000
7     11    3     6     5    0.000    12.552    0.000    0.000
11    1     18    12    5    0.000    19.460    0.000    0.000
11    3     2     5     5    0.000    44.978    0.000    0.000
18    2     3     6     5    0.000    44.978    0.000    0.000
11    3     2     18    5    0.000    44.978    0.000    0.000
4     1     11    3     5    0.000    19.460    0.000    0.000
4     1     18    2     5    0.000    19.460    0.000    0.000
1     11    3     6     5    0.000    12.552    0.000    0.000
1     18    2     5     5    0.000    12.552    0.000    0.000
1     11    3     2     5    0.000    12.552    0.000    0.000
1     18    2     3     5    0.000    12.552    0.000    0.000
4     1     18    12    5    0.000    19.460    0.000    0.000
5     2     18    12    5    0.000    12.552    0.000    0.000
3     2     18    12    5    0.000    12.552    0.000    0.000
1     18    12    13    5    0.000    0.000     0.000    0.000
1     18    12    19    5    0.000    0.000     0.000    0.000
13    12    14    15    5    0.000    0.000     1.331    0.000
13    12    14    16    5    0.000    0.000     1.331    0.000
13    12    14    17    5    0.000    0.000     1.331    0.000
19    12    14    15    5    0.000    0.000     1.331    0.000
19    12    14    16    5    0.000    0.000     1.331    0.000
19    12    14    17    5    0.000    0.000     1.331    0.000
5     2     3     6     5    0.000    44.978    0.000    0.000
3     11    1     18    5    0.000    19.460    0.000    0.000
2     18    1     11    5    0.000    19.460    0.000    0.000
1     18    12    14    5  -8.368    -1.151    -6.904    0.000
2     18    12    13    5  -11.297   -23.640    1.485    0.000
2     18    12    14    5  -18.221   -19.142   -5.753    0.000
2     18    12    19    5  -11.297   -23.640    1.485    0.000
18    12    14    15    5    0.000    0.000     0.000    0.000
18    12    14    16    5    0.000    0.000     0.000    0.000
18    12    14    17    5    0.000    0.000     0.000    0.000
7     11    1     3     5    0.000    8.368     0.000    0.000
12    18    1     2     5    0.000    8.368     0.000    0.000
5     2     18    3     5    0.000    9.205     0.000    0.000
6     3     11    2     5    0.000    9.205     0.000    0.000
4     1     11    18    5    0.000    9.205     0.000    0.000
